/*--------------------------------*- C++ -*----------------------------------*\
| =========                 |                                                 |
| \\      /  F ield         | OpenFOAM: The Open Source CFD Toolbox           |
|  \\    /   O peration     | Version:  5.0                                   |
|   \\  /    A nd           | Web:      www.OpenFOAM.org                      |
|    \\/     M anipulation  |                                                 |
\*---------------------------------------------------------------------------*/
FoamFile
{
    version     2.0;
    format      ascii;
    class       volScalarField;
    location    "60";
    object      FFR;
}
// * * * * * * * * * * * * * * * * * * * * * * * * * * * * * * * * * * * * * //

dimensions      [0 0 0 0 0 0 0];

internalField   nonuniform List<scalar> 
36178
(
0.980323
0.981319
0.981646
0.981087
0.979659
0.979706
0.98058
0.981488
0.982652
0.98393
0.984274
0.983563
0.983382
0.981599
0.981114
0.979314
0.978956
0.980137
0.980264
0.980267
0.980203
0.980682
0.98156
0.982691
0.983933
0.984968
0.985828
0.985926
0.985663
0.985238
0.985371
0.984729
0.984787
0.983208
0.98154
0.981103
0.97933
0.97897
0.979037
0.980167
0.980869
0.980154
0.980389
0.982201
0.982194
0.982235
0.98228
0.982684
0.98398
0.985063
0.985665
0.986374
0.986907
0.986929
0.986757
0.986458
0.98651
0.986298
0.986331
0.985289
0.985203
0.984366
0.983178
0.981442
0.980974
0.979318
0.97919
0.980213
0.979661
0.980265
0.980461
0.980579
0.980756
0.980492
0.980359
0.981449
0.981379
0.981232
0.981155
0.98118
0.981424
0.983342
0.9824
0.982684
0.98458
0.984575
0.98462
0.984763
0.985086
0.985751
0.986449
0.986626
0.987046
0.98709
0.986814
0.986402
0.986698
0.986309
0.98629
0.986268
0.986316
0.986441
0.986469
0.985998
0.985019
0.984012
0.983201
0.981954
0.981137
0.980351
0.979784
0.98021
0.981303
0.982596
0.983971
0.985278
0.984793
0.98538
0.986354
0.986018
0.985649
0.98566
0.985694
0.985968
0.986248
0.986404
0.986831
0.987048
0.987373
0.987633
0.987678
0.987493
0.987324
0.987599
0.987604
0.98752
0.987285
0.987334
0.98717
0.987219
0.986513
0.986555
0.986274
0.985564
0.985618
0.984409
0.983893
0.982599
0.982509
0.983901
0.985113
0.985981
0.986507
0.986543
0.987096
0.986879
0.986805
0.986769
0.98673
0.986756
0.986969
0.987284
0.987472
0.987601
0.987878
0.98809
0.988128
0.988
0.987867
0.988087
0.988096
0.988058
0.987872
0.987894
0.98781
0.98783
0.987335
0.987353
0.987212
0.98722
0.986795
0.986549
0.98608
0.985894
0.986509
0.987016
0.986962
0.987232
0.98686
0.987161
0.987522
0.987364
0.987336
0.987187
0.986887
0.986827
0.986383
0.986445
0.986874
0.987214
0.987477
0.987583
0.987996
0.987803
0.987622
0.987671
0.98773
0.9878
0.987986
0.988084
0.988236
0.988312
0.988493
0.988633
0.988747
0.988755
0.988688
0.988478
0.988394
0.988452
0.988288
0.988117
0.987918
0.987946
0.987728
0.987544
0.987585
0.987457
0.987278
0.987237
0.987196
0.987112
0.987155
0.987212
0.98718
0.987445
0.987474
0.987753
0.987847
0.988222
0.988214
0.988215
0.988246
0.988356
0.988456
0.98857
0.988689
0.988798
0.988882
0.988981
0.989009
0.988942
0.988842
0.988944
0.988987
0.988937
0.988692
0.98866
0.988695
0.988587
0.988432
0.988439
0.988417
0.988279
0.988277
0.988245
0.988256
0.987887
0.98789
0.987829
0.987823
0.987381
0.98738
0.986974
0.98732
0.987449
0.987142
0.987451
0.987674
0.987475
0.987719
0.987963
0.988311
0.988099
0.988353
0.988264
0.98839
0.988671
0.988559
0.988487
0.988477
0.988493
0.988577
0.988673
0.988726
0.988818
0.98885
0.988958
0.989034
0.989123
0.989126
0.98919
0.989261
0.989279
0.989242
0.989109
0.989181
0.98917
0.989163
0.988981
0.988937
0.988713
0.988568
0.988542
0.988557
0.988567
0.988547
0.988563
0.988531
0.988259
0.988259
0.988251
0.988243
0.987896
0.987847
0.987623
0.987465
0.987809
0.987893
0.987723
0.987932
0.988206
0.987944
0.987844
0.988144
0.988375
0.98839
0.988594
0.988494
0.988702
0.988833
0.989014
0.988934
0.988858
0.988854
0.988852
0.988844
0.988856
0.988908
0.988965
0.989015
0.989075
0.989139
0.9892
0.989268
0.989295
0.989255
0.989293
0.989283
0.989288
0.989277
0.989269
0.989265
0.989272
0.989287
0.989306
0.989319
0.989251
0.989237
0.989133
0.989086
0.988979
0.988947
0.988935
0.988932
0.988932
0.988721
0.988717
0.988557
0.988515
0.988509
0.988254
0.98826
0.988114
0.988015
0.988119
0.988323
0.988139
0.988349
0.988579
0.988607
0.98874
0.988888
0.988796
0.988751
0.988578
0.988502
0.98832
0.98808
0.987781
0.98805
0.98829
0.988256
0.988019
0.988308
0.988533
0.988577
0.988589
0.988585
0.988543
0.988535
0.988285
0.988479
0.988487
0.988686
0.988729
0.988883
0.98895
0.989109
0.989059
0.989036
0.989041
0.989051
0.989072
0.989124
0.989138
0.989186
0.989197
0.989252
0.989304
0.989363
0.989383
0.989431
0.989456
0.989468
0.989452
0.989362
0.989414
0.989414
0.989348
0.98933
0.989342
0.989345
0.989346
0.98934
0.989332
0.989173
0.989153
0.98896
0.988957
0.988962
0.988976
0.989151
0.989146
0.989148
0.989174
0.989177
0.989187
0.989189
0.989139
0.989257
0.989285
0.989257
0.989334
0.989348
0.989382
0.989356
0.989346
0.989285
0.989203
0.989197
0.989058
0.988929
0.988843
0.98871
0.988664
0.988532
0.988444
0.988411
0.988453
0.988584
0.988487
0.988669
0.988757
0.988653
0.988807
0.988952
0.988963
0.98912
0.989034
0.989144
0.989113
0.989216
0.989188
0.989206
0.989217
0.989218
0.989224
0.989244
0.989299
0.989323
0.989322
0.989364
0.989414
0.989436
0.989492
0.989519
0.989532
0.989553
0.989548
0.989506
0.989497
0.9895
0.989508
0.989489
0.989495
0.98945
0.98946
0.98945
0.989459
0.989447
0.989434
0.989445
0.989331
0.989327
0.989321
0.989318
0.989336
0.989281
0.98937
0.989383
0.989351
0.989398
0.989402
0.989415
0.989407
0.989399
0.989396
0.989357
0.989347
0.989302
0.989228
0.989206
0.989082
0.98901
0.988833
0.988739
0.98882
0.988736
0.988656
0.988775
0.988905
0.989021
0.989052
0.988923
0.988874
0.988976
0.989086
0.989178
0.989246
0.989232
0.989128
0.989224
0.989203
0.989264
0.989225
0.989228
0.989322
0.989287
0.989279
0.989282
0.989286
0.9893
0.989305
0.989351
0.989349
0.989387
0.989409
0.989455
0.989501
0.989492
0.989556
0.989579
0.989569
0.989582
0.989573
0.989568
0.989556
0.989525
0.989544
0.989543
0.989541
0.989513
0.989517
0.989485
0.989508
0.989505
0.989498
0.98948
0.989475
0.989486
0.989422
0.989436
0.989332
0.98933
0.989422
0.989423
0.989376
0.989433
0.989425
0.989425
0.989423
0.989411
0.989407
0.989401
0.989389
0.989409
0.989396
0.989406
0.989405
0.989376
0.989363
0.989334
0.989284
0.989329
0.989288
0.989294
0.989343
0.989376
0.989405
0.989417
0.989407
0.98942
0.989393
0.989344
0.989317
0.989321
0.989283
0.98922
0.989126
0.989088
0.98902
0.989138
0.989214
0.98926
0.989332
0.989372
0.989371
0.989385
0.989396
0.989409
0.98942
0.989428
0.989457
0.98952
0.989574
0.989612
0.989624
0.989645
0.98965
0.989652
0.989641
0.989667
0.989628
0.989595
0.98955
0.989503
0.989461
0.989428
0.989404
0.989387
0.989372
0.989356
0.989386
0.989398
0.9894
0.989403
0.989408
0.989407
0.989412
0.989422
0.989425
0.989449
0.989474
0.989475
0.989433
0.989464
0.989492
0.989468
0.989412
0.989461
0.989465
0.989474
0.989497
0.989523
0.989573
0.989579
0.989631
0.989682
0.989719
0.989752
0.989759
0.989752
0.989723
0.989702
0.989623
0.989624
0.989636
0.989641
0.989592
0.989581
0.98957
0.989539
0.989555
0.989518
0.98951
0.989477
0.989502
0.989487
0.989461
0.989454
0.989465
0.989411
0.989426
0.989378
0.989384
0.989333
0.989347
0.989385
0.989359
0.989333
0.989364
0.98939
0.989412
0.989426
0.989437
0.98944
0.989459
0.98947
0.989494
0.989512
0.989529
0.989548
0.98956
0.989591
0.989624
0.989647
0.989656
0.989662
0.989718
0.989741
0.989808
0.989876
0.989904
0.989887
0.989865
0.989828
0.989783
0.989732
0.989684
0.989624
0.989632
0.989664
0.989646
0.989582
0.989571
0.989553
0.989508
0.989522
0.989497
0.989454
0.989451
0.989472
0.989448
0.989438
0.989453
0.989456
0.989425
0.989424
0.989438
0.989426
0.989413
0.989415
0.989393
0.989378
0.989343
0.989321
0.989335
0.989352
0.989365
0.989395
0.989384
0.9894
0.989381
0.989369
0.989404
0.989411
0.98942
0.989436
0.989439
0.989491
0.989532
0.989585
0.989644
0.98965
0.989568
0.989533
0.989543
0.989505
0.989563
0.989607
0.989565
0.989637
0.989716
0.989811
0.989915
0.989998
0.990054
0.990098
0.990161
0.990215
0.990274
0.9903
0.990268
0.990183
0.990092
0.99001
0.989972
0.989997
0.989929
0.989879
0.989811
0.989793
0.989847
0.989753
0.989726
0.989692
0.989614
0.989583
0.989598
0.989646
0.989611
0.989546
0.989531
0.989467
0.989459
0.989474
0.989431
0.989418
0.989427
0.989402
0.989426
0.989419
0.98943
0.989425
0.989418
0.989415
0.989408
0.989405
0.989407
0.989419
0.98943
0.989446
0.989419
0.989391
0.989387
0.989382
0.989445
0.989509
0.989523
0.989592
0.989683
0.989769
0.989869
0.989986
0.990096
0.990188
0.990272
0.990334
0.990356
0.990399
0.990348
0.990273
0.990152
0.990029
0.989959
0.989872
0.989791
0.989828
0.989766
0.989686
0.989702
0.989728
0.989651
0.989618
0.989601
0.989515
0.98951
0.989544
0.989587
0.98955
0.989488
0.989461
0.989491
0.989462
0.989398
0.989426
0.989401
0.989353
0.989394
0.989391
0.989363
0.989391
0.989407
0.989394
0.989402
0.989406
0.98941
0.989412
0.989406
0.989408
0.989386
0.989378
0.989355
0.989338
0.989349
0.989334
0.989319
0.989369
0.989449
0.989382
0.989367
0.989412
0.98951
0.989614
0.989683
0.989611
0.989635
0.989739
0.989748
0.989788
0.989882
0.990002
0.990112
0.990235
0.990305
0.990283
0.990319
0.990206
0.990224
0.990024
0.98993
0.989841
0.989903
0.989942
0.990026
0.990016
0.99006
0.990058
0.98999
0.989886
0.989766
0.989652
0.989543
0.989434
0.989348
0.989253
0.989187
0.989112
0.989059
0.989097
0.989134
0.989197
0.989239
0.989281
0.989311
0.989352
0.989336
0.989309
0.989278
0.989326
0.989286
0.989257
0.98923
0.9892
0.989291
0.989258
0.989319
0.989371
0.989484
0.989559
0.98967
0.989747
0.989692
0.989861
0.989957
0.990055
0.990093
0.990024
0.990022
0.989878
0.989742
0.98964
0.989622
0.989577
0.989575
0.989582
0.989636
0.989672
0.98986
0.989851
0.989787
0.989695
0.989656
0.989573
0.989646
0.98962
0.989542
0.989577
0.989584
0.98952
0.989486
0.989496
0.989412
0.989451
0.989458
0.989474
0.98938
0.98943
0.989401
0.989413
0.989339
0.989383
0.989343
0.989381
0.989341
0.989309
0.98936
0.989304
0.989295
0.989341
0.989357
0.989353
0.989359
0.989334
0.989294
0.989273
0.989295
0.989251
0.989209
0.989212
0.989139
0.989102
0.989113
0.989076
0.98904
0.989009
0.989028
0.989129
0.989157
0.989177
0.98916
0.989169
0.989271
0.989339
0.989365
0.989373
0.989425
0.989467
0.989399
0.989315
0.989247
0.989199
0.989145
0.989076
0.989048
0.989006
0.98909
0.989063
0.989101
0.98916
0.989153
0.98918
0.989216
0.989286
0.989196
0.98925
0.989287
0.989281
0.989351
0.989483
0.989546
0.989611
0.98963
0.989626
0.989609
0.989399
0.989159
0.989071
0.988993
0.989061
0.989152
0.989262
0.989338
0.989381
0.989415
0.989403
0.989616
0.989688
0.989599
0.989596
0.989557
0.989555
0.989543
0.989467
0.989485
0.989402
0.989488
0.989434
0.989457
0.989386
0.989382
0.989388
0.989458
0.989377
0.989415
0.989353
0.989405
0.98934
0.989382
0.989294
0.989346
0.989295
0.989246
0.989285
0.989308
0.98925
0.989276
0.989284
0.989289
0.989302
0.98928
0.989234
0.989202
0.989229
0.989186
0.989114
0.989074
0.988996
0.989033
0.988984
0.988945
0.988938
0.988951
0.988926
0.988987
0.988968
0.988977
0.988993
0.988991
0.989039
0.98903
0.989036
0.989066
0.98901
0.988975
0.988921
0.988868
0.988869
0.98887
0.98885
0.988863
0.988949
0.988888
0.98883
0.988873
0.98884
0.988928
0.988968
0.989005
0.98898
0.988999
0.988963
0.988923
0.988959
0.988905
0.988857
0.988794
0.988769
0.988804
0.988743
0.988899
0.988915
0.98897
0.989069
0.989164
0.989253
0.989337
0.989286
0.989319
0.989337
0.989356
0.989346
0.989345
0.989343
0.98934
0.989406
0.989476
0.989524
0.98955
0.989445
0.989417
0.989436
0.989433
0.989423
0.989369
0.989359
0.989444
0.989324
0.989292
0.989195
0.989098
0.989001
0.988908
0.988878
0.988785
0.988805
0.988759
0.988718
0.98876
0.98872
0.988886
0.988914
0.988992
0.989106
0.989198
0.989269
0.989214
0.989235
0.989276
0.989285
0.989248
0.989243
0.989235
0.989199
0.989173
0.989134
0.98919
0.989265
0.989308
0.98918
0.989201
0.989219
0.989246
0.989278
0.989365
0.989307
0.989291
0.989285
0.989289
0.989204
0.989111
0.989068
0.988928
0.988885
0.989002
0.989079
0.989168
0.989253
0.989302
0.989298
0.989296
0.989213
0.989266
0.989254
0.98926
0.989331
0.989439
0.989614
0.989826
0.990094
0.990405
0.990736
0.991084
0.991424
0.991741
0.992038
0.992306
0.992525
0.9927
0.992861
0.99296
0.993053
0.993135
0.993152
0.993054
0.99304
0.992975
0.992843
0.992809
0.992652
0.992471
0.992263
0.992194
0.991864
0.991501
0.991237
0.990891
0.990744
0.990359
0.990049
0.989753
0.989361
0.989278
0.989001
0.988939
0.988735
0.988788
0.988782
0.988753
0.988864
0.988935
0.988934
0.989051
0.989088
0.989184
0.989135
0.98921
0.989241
0.98931
0.989344
0.989242
0.989302
0.989242
0.98924
0.989223
0.989201
0.989182
0.989171
0.989171
0.989091
0.98906
0.989005
0.989004
0.988968
0.988983
0.988944
0.988881
0.988854
0.988858
0.988832
0.988832
0.988792
0.988793
0.988711
0.988687
0.988705
0.988717
0.988749
0.988792
0.98887
0.988887
0.988909
0.988829
0.988916
0.988933
0.988948
0.989019
0.989069
0.989086
0.989085
0.989171
0.989116
0.989209
0.989156
0.989189
0.989192
0.989209
0.989108
0.989126
0.989131
0.989154
0.989187
0.989145
0.989085
0.989043
0.989003
0.988978
0.988908
0.988869
0.988958
0.989003
0.989059
0.989106
0.989156
0.989112
0.989058
0.989103
0.98913
0.989104
0.989168
0.989176
0.989105
0.989021
0.98883
0.989149
0.98924
0.989385
0.989335
0.989252
0.989067
0.988755
0.988449
0.9881
0.988292
0.988267
0.988257
0.988588
0.988841
0.98904
0.989133
0.989074
0.989287
0.989189
0.989208
0.989373
0.989415
0.989342
0.98928
0.989368
0.989352
0.989248
0.989365
0.98941
0.989343
0.989347
0.98946
0.989363
0.989381
0.989526
0.989445
0.98948
0.989386
0.989479
0.989439
0.989461
0.989313
0.989276
0.989236
0.989182
0.989348
0.989413
0.989446
0.989417
0.989373
0.989308
0.98923
0.989253
0.989183
0.989093
0.989008
0.989098
0.988973
0.988924
0.988801
0.988832
0.988832
0.988781
0.988981
0.989045
0.989312
0.989386
0.9898
0.990053
0.990383
0.990722
0.991087
0.991149
0.991204
0.991555
0.991831
0.99218
0.992405
0.99245
0.992625
0.992782
0.992816
0.992786
0.992607
0.992599
0.992408
0.992162
0.99188
0.991479
0.991396
0.991053
0.990731
0.990397
0.990078
0.98979
0.989411
0.98935
0.989114
0.989025
0.98884
0.988883
0.988871
0.988985
0.988938
0.989032
0.989112
0.989228
0.989318
0.989245
0.989155
0.989068
0.988982
0.989042
0.989115
0.989058
0.988998
0.988963
0.988908
0.988859
0.988867
0.989004
0.988971
0.989034
0.989023
0.989005
0.989045
0.989104
0.989046
0.98918
0.989262
0.989382
0.989554
0.989771
0.990119
0.990432
0.990769
0.991088
0.99141
0.991487
0.991904
0.992175
0.992414
0.992605
0.992766
0.992771
0.992892
0.992929
0.992941
0.992959
0.993024
0.993117
0.993098
0.993094
0.993006
0.992992
0.993081
0.993081
0.993076
0.992978
0.992976
0.992887
0.992887
0.992773
0.992624
0.992435
0.9922
0.991895
0.991557
0.991239
0.990894
0.99059
0.990273
0.989938
0.98968
0.989483
0.989329
0.989221
0.989156
0.989245
0.989107
0.98924
0.989374
0.989527
0.989727
0.989968
0.990302
0.990583
0.990874
0.991076
0.991
0.99133
0.991674
0.992005
0.992248
0.992479
0.992658
0.992795
0.992903
0.992993
0.992979
0.993059
0.993063
0.993111
0.993142
0.993141
0.993163
0.993167
0.99317
0.993215
0.993141
0.993148
0.993164
0.993091
0.993014
0.99291
0.992782
0.99254
0.992524
0.992309
0.99225
0.992013
0.991894
0.991659
0.991329
0.991169
0.990792
0.990467
0.990186
0.990034
0.989663
0.989426
0.9891
0.989018
0.988861
0.988663
0.988755
0.988724
0.988694
0.988817
0.988872
0.988882
0.988979
0.989031
0.989017
0.989105
0.989123
0.989093
0.989043
0.988969
0.98896
0.988931
0.988838
0.988835
0.988815
0.988804
0.988749
0.988719
0.988701
0.988704
0.988714
0.988684
0.98887
0.988894
0.989045
0.98912
0.989025
0.989136
0.989206
0.989219
0.989232
0.98925
0.989236
0.989234
0.989238
0.989208
0.98916
0.989108
0.989087
0.989146
0.989116
0.989073
0.989121
0.989201
0.989359
0.989239
0.989143
0.989188
0.989269
0.989263
0.989233
0.989329
0.989452
0.989695
0.990098
0.990389
0.990424
0.99074
0.990698
0.990849
0.991222
0.99154
0.991613
0.991874
0.992194
0.992277
0.992452
0.992574
0.992709
0.992873
0.992972
0.993072
0.993047
0.993097
0.993146
0.993177
0.993176
0.993186
0.993108
0.993046
0.992947
0.99282
0.992571
0.992594
0.992388
0.992181
0.991904
0.991578
0.99122
0.990827
0.990383
0.990054
0.9898
0.989604
0.989474
0.989342
0.989399
0.989296
0.989387
0.989397
0.989411
0.989345
0.989322
0.989318
0.989248
0.98923
0.989179
0.989332
0.989469
0.98962
0.989769
0.990123
0.990175
0.990157
0.990471
0.990738
0.990789
0.991093
0.991504
0.991602
0.991586
0.991415
0.991742
0.99201
0.992223
0.992378
0.992333
0.992552
0.99272
0.992825
0.992936
0.993015
0.993084
0.993067
0.993124
0.993115
0.993179
0.993172
0.993185
0.99319
0.993216
0.99322
0.993251
0.993275
0.993297
0.993251
0.993268
0.993197
0.993216
0.99314
0.993078
0.992973
0.992818
0.99266
0.992465
0.992291
0.992037
0.991774
0.991443
0.991073
0.990706
0.990368
0.990313
0.990107
0.990127
0.990155
0.990136
0.990029
0.990056
0.990038
0.989926
0.989825
0.990168
0.990268
0.990617
0.990531
0.990476
0.990782
0.991085
0.991418
0.991776
0.992049
0.992278
0.99251
0.99268
0.992811
0.992921
0.993009
0.993085
0.993147
0.993208
0.993255
0.993312
0.993347
0.993397
0.993465
0.993552
0.993553
0.99343
0.993414
0.993344
0.993323
0.993274
0.993276
0.993219
0.993248
0.993176
0.993226
0.99326
0.993192
0.993248
0.993281
0.993222
0.993252
0.993276
0.993294
0.993315
0.993336
0.993279
0.993251
0.993197
0.993146
0.99302
0.993083
0.993145
0.993205
0.9932
0.993224
0.993259
0.993306
0.993322
0.993305
0.99332
0.993357
0.993319
0.993288
0.993228
0.993154
0.99306
0.992942
0.992825
0.992682
0.992626
0.99262
0.992643
0.992704
0.992663
0.992741
0.992722
0.992731
0.992702
0.992655
0.992618
0.992576
0.992533
0.99249
0.99239
0.992315
0.992255
0.992349
0.992407
0.992465
0.992463
0.992659
0.992418
0.992499
0.992482
0.992473
0.992422
0.99239
0.992395
0.992425
0.992601
0.992772
0.9929
0.993022
0.993102
0.993179
0.993241
0.993278
0.993285
0.993299
0.993346
0.993358
0.993371
0.99336
0.993411
0.993341
0.993364
0.993392
0.993403
0.993449
0.993419
0.993418
0.993429
0.993457
0.993457
0.993473
0.99348
0.993472
0.993486
0.993461
0.993444
0.993416
0.993389
0.993372
0.993347
0.993339
0.993344
0.993298
0.993317
0.993298
0.993352
0.993379
0.993383
0.993405
0.993483
0.993386
0.993407
0.993405
0.993404
0.993389
0.993367
0.993345
0.993342
0.993364
0.993352
0.99332
0.993288
0.993317
0.99326
0.993279
0.993297
0.993319
0.993339
0.993357
0.993337
0.993348
0.993349
0.99331
0.99333
0.993302
0.993267
0.993273
0.993295
0.993324
0.993224
0.993193
0.993165
0.99314
0.993072
0.993074
0.993056
0.993098
0.993122
0.993154
0.993265
0.993261
0.993274
0.993265
0.993273
0.993258
0.993242
0.993223
0.993203
0.993188
0.993156
0.99323
0.993228
0.993287
0.99332
0.99335
0.993384
0.993396
0.993393
0.993421
0.993463
0.993474
0.993504
0.993529
0.993522
0.993544
0.99356
0.993585
0.993579
0.993567
0.9936
0.993598
0.993602
0.993593
0.993574
0.993533
0.993521
0.993534
0.993463
0.993482
0.993468
0.993492
0.99351
0.99352
0.993549
0.993535
0.993547
0.993585
0.993519
0.99354
0.993527
0.993503
0.993512
0.993486
0.993453
0.993401
0.99343
0.993457
0.993474
0.993501
0.993523
0.993534
0.993534
0.993565
0.993563
0.993601
0.993626
0.993622
0.993652
0.993631
0.993657
0.99364
0.993629
0.993624
0.993623
0.993621
0.993613
0.993605
0.993463
0.993458
0.993467
0.993409
0.993343
0.993336
0.993256
0.993267
0.993279
0.993277
0.993339
0.993409
0.993402
0.993351
0.993279
0.993207
0.993162
0.993087
0.993084
0.993105
0.993166
0.99323
0.99317
0.993158
0.99318
0.993226
0.99323
0.993283
0.993369
0.993421
0.993516
0.99359
0.993667
0.993725
0.993793
0.993834
0.993905
0.993932
0.994001
0.994021
0.99408
0.994089
0.994137
0.994136
0.994175
0.994175
0.994204
0.994183
0.994237
0.994221
0.994255
0.994227
0.994253
0.994234
0.994267
0.99426
0.994272
0.994306
0.994361
0.994487
0.994606
0.994786
0.994924
0.994933
0.994912
0.994895
0.994857
0.994835
0.994815
0.994802
0.994739
0.994635
0.994531
0.994466
0.994425
0.994358
0.994316
0.99429
0.994265
0.994235
0.994188
0.994236
0.994217
0.99424
0.994264
0.994287
0.994309
0.994347
0.994415
0.994424
0.994528
0.994661
0.994688
0.994715
0.994726
0.994726
0.994736
0.994764
0.99474
0.994753
0.994795
0.994946
0.995057
0.995044
0.995075
0.995026
0.995015
0.994988
0.994964
0.99492
0.994799
0.994983
0.994894
0.994856
0.994718
0.994603
0.994505
0.994446
0.994376
0.994332
0.994303
0.994278
0.994248
0.994193
0.994228
0.994179
0.994192
0.994196
0.994212
0.994232
0.994235
0.994236
0.994243
0.994239
0.994232
0.994208
0.994215
0.99422
0.994235
0.994261
0.994293
0.994292
0.994283
0.994254
0.994215
0.994254
0.994274
0.99428
0.994281
0.994278
0.994267
0.994259
0.994241
0.994222
0.994208
0.994189
0.994217
0.994234
0.994253
0.994274
0.994291
0.9943
0.994309
0.994311
0.99431
0.994304
0.994288
0.994311
0.994329
0.994334
0.994337
0.994337
0.994328
0.994321
0.994304
0.994286
0.994269
0.994242
0.994222
0.994203
0.994222
0.99422
0.994246
0.994269
0.994285
0.994363
0.994307
0.994376
0.994403
0.994576
0.994607
0.994613
0.994586
0.994538
0.994581
0.994609
0.994611
0.994786
0.994795
0.994934
0.994927
0.994941
0.995106
0.995188
0.995192
0.995181
0.995163
0.995175
0.995171
0.995136
0.995076
0.995066
0.995003
0.995064
0.995073
0.994884
0.994709
0.994598
0.994474
0.9945
0.99452
0.994621
0.994736
0.994886
0.994875
0.995069
0.995188
0.995194
0.995193
0.995295
0.995286
0.995206
0.99506
0.994909
0.994737
0.994602
0.994499
0.994406
0.994457
0.994446
0.994401
0.994388
0.994341
0.994305
0.99428
0.994248
0.994187
0.99423
0.994171
0.994175
0.994172
0.994178
0.994202
0.994195
0.994213
0.994223
0.994225
0.994223
0.994218
0.994208
0.994153
0.994145
0.994117
0.994077
0.994035
0.993972
0.99396
0.993959
0.993916
0.993927
0.993955
0.993998
0.994004
0.994
0.993964
0.993915
0.993976
0.994028
0.994084
0.994121
0.994164
0.994163
0.994168
0.994181
0.9942
0.994209
0.994214
0.99422
0.994207
0.994215
0.994198
0.994191
0.994187
0.994204
0.994208
0.994235
0.994255
0.99428
0.994317
0.994367
0.994463
0.99457
0.994688
0.994837
0.994979
0.995101
0.995211
0.995201
0.995195
0.99517
0.995066
0.995249
0.995334
0.995346
0.995326
0.995427
0.995449
0.995469
0.995344
0.9952
0.994999
0.994958
0.995006
0.99517
0.995183
0.995307
0.995475
0.995559
0.995665
0.995747
0.995762
0.995766
0.995792
0.995731
0.995638
0.995598
0.995654
0.99572
0.995607
0.995523
0.995503
0.99561
0.995623
0.995637
0.995697
0.995807
0.995803
0.995801
0.995914
0.995871
0.995847
0.995783
0.995716
0.995602
0.995461
0.99542
0.995462
0.99559
0.995589
0.995685
0.995768
0.995839
0.995884
0.995934
0.995934
0.995922
0.99602
0.996012
0.995972
0.995928
0.995825
0.995856
0.995854
0.995916
0.995967
0.995974
0.99602
0.996098
0.99609
0.996091
0.996184
0.996206
0.996086
0.996095
0.996097
0.996112
0.996185
0.996285
0.996266
0.996302
0.996326
0.996279
0.996165
0.996055
0.996073
0.996057
0.99598
0.995984
0.995872
0.995879
0.995766
0.995705
0.995541
0.995478
0.995441
0.995253
0.995072
0.99501
0.99497
0.994721
0.994616
0.994492
0.994537
0.994436
0.994458
0.994378
0.994347
0.994298
0.994323
0.994272
0.994239
0.994262
0.994198
0.994181
0.994175
0.994162
0.99414
0.99417
0.994163
0.994186
0.994187
0.994157
0.994168
0.994164
0.994164
0.994171
0.994165
0.99415
0.994129
0.9941
0.994061
0.99402
0.993974
0.993899
0.99386
0.993793
0.993728
0.993649
0.993581
0.99349
0.993482
0.993528
0.993587
0.993658
0.993677
0.993678
0.993612
0.993556
0.993667
0.993732
0.993814
0.993852
0.993882
0.993897
0.993935
0.993995
0.994035
0.994074
0.994103
0.994126
0.994143
0.994158
0.994157
0.994171
0.994159
0.994175
0.994153
0.994166
0.994152
0.99419
0.994195
0.994231
0.994255
0.994289
0.994335
0.994402
0.994499
0.994613
0.994745
0.994884
0.995033
0.995165
0.995247
0.995346
0.995379
0.995411
0.99542
0.995426
0.995417
0.995421
0.995362
0.995518
0.995575
0.995636
0.995716
0.995689
0.995786
0.995822
0.995834
0.995883
0.995986
0.995988
0.99607
0.996173
0.996181
0.996274
0.996363
0.996386
0.996473
0.996469
0.996447
0.996405
0.996397
0.996408
0.996279
0.996216
0.996114
0.996103
0.996003
0.995923
0.995928
0.995894
0.995786
0.995708
0.995691
0.995517
0.995471
0.995439
0.99527
0.995237
0.995055
0.995032
0.994793
0.994773
0.994601
0.994628
0.994502
0.994512
0.994448
0.994481
0.994401
0.99435
0.994366
0.994295
0.994306
0.99427
0.994289
0.994226
0.994181
0.994212
0.994159
0.994149
0.994131
0.994117
0.994147
0.994124
0.99415
0.994147
0.994151
0.994151
0.994134
0.994133
0.994121
0.994102
0.994077
0.994044
0.993999
0.993954
0.993895
0.993839
0.993769
0.993699
0.99362
0.993549
0.993485
0.993399
0.993349
0.993269
0.993209
0.993144
0.993174
0.993115
0.993041
0.992987
0.992886
0.992851
0.9929
0.992986
0.993059
0.992984
0.99288
0.992874
0.992922
0.993004
0.993051
0.993057
0.993107
0.993193
0.993233
0.993308
0.993373
0.993453
0.993518
0.993591
0.993655
0.993725
0.993773
0.993843
0.993883
0.99395
0.993981
0.994037
0.994056
0.994099
0.994105
0.994137
0.994134
0.994157
0.994139
0.994165
0.99416
0.994181
0.994176
0.994199
0.994214
0.994243
0.99426
0.994296
0.994346
0.994421
0.994533
0.994661
0.994807
0.99495
0.995082
0.995199
0.995274
0.995336
0.995345
0.995344
0.995337
0.995332
0.995322
0.995323
0.99527
0.995277
0.99529
0.995302
0.995295
0.995398
0.995428
0.995451
0.995478
0.995493
0.995515
0.995495
0.995493
0.995622
0.995691
0.995664
0.995765
0.995819
0.995854
0.995907
0.995874
0.996017
0.996054
0.996094
0.996237
0.996249
0.99638
0.996367
0.996464
0.996476
0.996542
0.996542
0.996553
0.996506
0.996492
0.996409
0.9964
0.996298
0.996243
0.996154
0.99615
0.996029
0.996038
0.995927
0.995919
0.99587
0.995856
0.995723
0.995724
0.995573
0.995488
0.995431
0.995222
0.995221
0.995036
0.994798
0.994766
0.994632
0.99464
0.994521
0.994462
0.994459
0.994416
0.994434
0.99434
0.994311
0.994267
0.99426
0.994218
0.994245
0.994167
0.994153
0.99413
0.994105
0.99411
0.994109
0.994123
0.994115
0.994144
0.994131
0.994124
0.994122
0.994113
0.994096
0.994073
0.994042
0.994002
0.993949
0.993897
0.99383
0.993768
0.993685
0.993628
0.993541
0.993469
0.993419
0.993351
0.993307
0.993243
0.993188
0.993193
0.993244
0.993307
0.993353
0.993368
0.993404
0.993471
0.99355
0.993593
0.993578
0.993491
0.993482
0.993542
0.993623
0.993687
0.9937
0.993636
0.993607
0.993609
0.993489
0.99349
0.993487
0.993418
0.993327
0.993333
0.993293
0.993308
0.993258
0.993276
0.993268
0.993305
0.993321
0.993308
0.993331
0.993349
0.99336
0.993385
0.993373
0.993406
0.993412
0.993447
0.993479
0.993508
0.993458
0.993463
0.993503
0.993515
0.993508
0.993536
0.993571
0.993606
0.99358
0.993634
0.993661
0.993658
0.993699
0.993691
0.993686
0.993729
0.993716
0.993734
0.993741
0.993745
0.993748
0.993749
0.993731
0.993728
0.993733
0.993742
0.993779
0.993804
0.993827
0.993841
0.993849
0.993833
0.993844
0.993828
0.993713
0.993716
0.99379
0.993814
0.993807
0.993776
0.993725
0.99379
0.993843
0.993882
0.993842
0.993883
0.993922
0.99396
0.993961
0.993968
0.994033
0.994033
0.994082
0.994093
0.994083
0.994059
0.994031
0.99407
0.994113
0.994154
0.994182
0.994216
0.994192
0.994146
0.994106
0.994144
0.994173
0.99422
0.994247
0.994283
0.994251
0.9942
0.994206
0.994211
0.994257
0.994277
0.994319
0.994318
0.994319
0.994305
0.994344
0.994333
0.994329
0.994353
0.994361
0.994363
0.994367
0.99436
0.994355
0.994339
0.994323
0.994305
0.994294
0.994283
0.994252
0.994239
0.994223
0.994206
0.994248
0.994239
0.99426
0.994264
0.994286
0.994379
0.994373
0.994404
0.994398
0.994379
0.994354
0.994356
0.994367
0.994264
0.99424
0.994275
0.99421
0.994187
0.994182
0.9942
0.994211
0.994227
0.994225
0.994216
0.994238
0.994242
0.994176
0.994179
0.994258
0.99425
0.994268
0.994414
0.994393
0.994441
0.994417
0.994468
0.994523
0.994663
0.994693
0.994816
0.994916
0.995066
0.995054
0.995039
0.995205
0.995261
0.995275
0.995284
0.995295
0.99527
0.995244
0.995224
0.99524
0.99531
0.995321
0.995335
0.99538
0.995413
0.995403
0.995442
0.99546
0.995476
0.9956
0.99567
0.995648
0.995751
0.99579
0.995783
0.995807
0.995844
0.995981
0.996082
0.996129
0.996139
0.996135
0.996304
0.996311
0.996437
0.996443
0.996389
0.996516
0.996532
0.996544
0.996593
0.996585
0.996586
0.99658
0.996557
0.99653
0.996552
0.996563
0.996563
0.996565
0.996576
0.996591
0.996563
0.996541
0.996538
0.99651
0.996529
0.996479
0.996403
0.996394
0.9963
0.996242
0.996252
0.996152
0.996161
0.996099
0.996073
0.995958
0.995975
0.995848
0.995815
0.995744
0.995724
0.995565
0.995461
0.995426
0.995256
0.995238
0.995004
0.994996
0.994819
0.994802
0.994631
0.994548
0.994584
0.994504
0.994533
0.994425
0.994384
0.994309
0.994342
0.994337
0.994254
0.994228
0.994186
0.994129
0.994169
0.994112
0.994105
0.994111
0.994106
0.994114
0.994112
0.994119
0.994117
0.994108
0.994091
0.994069
0.994035
0.993994
0.993937
0.993888
0.993825
0.993762
0.993708
0.993694
0.993656
0.99366
0.993542
0.993552
0.993545
0.993466
0.993422
0.993347
0.993357
0.993339
0.993291
0.993263
0.993325
0.993352
0.993325
0.993342
0.993357
0.993355
0.99337
0.993358
0.99331
0.993344
0.993326
0.993349
0.99333
0.993352
0.993397
0.993391
0.993438
0.99339
0.993399
0.993396
0.993387
0.993395
0.993387
0.993366
0.993382
0.993375
0.993362
0.993375
0.993412
0.993438
0.993442
0.993462
0.993457
0.993508
0.993431
0.993436
0.993451
0.993501
0.993552
0.993598
0.993632
0.993646
0.99369
0.99369
0.993736
0.993724
0.993775
0.993761
0.993835
0.993848
0.993858
0.993873
0.993888
0.993903
0.993911
0.99388
0.99388
0.993934
0.99399
0.994042
0.994096
0.994136
0.994175
0.994211
0.994233
0.994255
0.994261
0.994291
0.994291
0.99432
0.994306
0.994329
0.99431
0.994322
0.994275
0.994288
0.994252
0.994258
0.99422
0.99424
0.994244
0.994266
0.994349
0.994452
0.994556
0.994722
0.99485
0.994964
0.994992
0.994949
0.994912
0.994832
0.994689
0.994542
0.994523
0.994656
0.994742
0.994791
0.994927
0.995076
0.995181
0.995275
0.995328
0.9954
0.99548
0.995529
0.995577
0.995652
0.995693
0.995725
0.995778
0.995831
0.995898
0.995913
0.995944
0.996035
0.996057
0.996099
0.996276
0.996341
0.996379
0.99648
0.996482
0.996429
0.996551
0.996552
0.996597
0.996588
0.99662
0.996609
0.996601
0.996611
0.996597
0.996563
0.996541