/*--------------------------------*- C++ -*----------------------------------*\
| =========                 |                                                 |
| \\      /  F ield         | OpenFOAM: The Open Source CFD Toolbox           |
|  \\    /   O peration     | Version:  5.0                                   |
|   \\  /    A nd           | Web:      www.OpenFOAM.org                      |
|    \\/     M anipulation  |                                                 |
\*---------------------------------------------------------------------------*/
FoamFile
{
    version     2.0;
    format      ascii;
    class       volScalarField;
    location    "60";
    object      FFRRest;
}
// * * * * * * * * * * * * * * * * * * * * * * * * * * * * * * * * * * * * * //

dimensions      [0 0 0 0 0 0 0];

internalField   nonuniform List<scalar> 
36178
(
0.995911
0.996135
0.996189
0.996082
0.995717
0.995747
0.995954
0.99616
0.996396
0.996642
0.996694
0.996583
0.996552
0.996176
0.996084
0.995691
0.995607
0.995868
0.995891
0.995887
0.995874
0.995979
0.996176
0.996402
0.996636
0.996831
0.996994
0.997005
0.996968
0.99688
0.996893
0.996797
0.996811
0.996526
0.996166
0.996078
0.995695
0.995612
0.995627
0.995889
0.996051
0.995886
0.995933
0.996321
0.996323
0.996331
0.996336
0.996412
0.99665
0.996857
0.996969
0.997098
0.997198
0.997197
0.997172
0.997109
0.997111
0.997079
0.997088
0.996882
0.996876
0.996715
0.996527
0.996154
0.996057
0.995701
0.995669
0.995892
0.995733
0.995898
0.99594
0.995961
0.995993
0.995943
0.995916
0.996144
0.99613
0.996112
0.996108
0.996118
0.996174
0.996551
0.996359
0.996411
0.99678
0.996779
0.996788
0.996812
0.996863
0.996986
0.997119
0.997147
0.997228
0.997235
0.997184
0.997108
0.997166
0.997089
0.997087
0.997084
0.997095
0.997122
0.997127
0.997038
0.996854
0.996671
0.996525
0.996272
0.996096
0.995939
0.995803
0.995894
0.996136
0.996401
0.99666
0.996904
0.996821
0.996913
0.997114
0.997043
0.996983
0.996982
0.996986
0.997029
0.997089
0.997114
0.997196
0.997233
0.997296
0.997345
0.997351
0.997318
0.997279
0.997334
0.997331
0.997321
0.997272
0.997275
0.997252
0.997263
0.997113
0.997121
0.997078
0.996951
0.996965
0.996731
0.996641
0.996391
0.99638
0.996647
0.99687
0.997032
0.997134
0.997139
0.997256
0.997208
0.997198
0.997189
0.997181
0.997188
0.997224
0.997283
0.997322
0.997343
0.997395
0.997437
0.997442
0.997419
0.997389
0.997433
0.997431
0.997429
0.997389
0.997388
0.997379
0.997384
0.997276
0.997279
0.99726
0.997264
0.997183
0.997128
0.997042
0.997014
0.997129
0.997233
0.997225
0.99728
0.997203
0.997265
0.997342
0.997314
0.997308
0.997272
0.997205
0.997199
0.997111
0.997124
0.997206
0.997278
0.997334
0.997352
0.997439
0.997397
0.997365
0.997374
0.997383
0.997392
0.997429
0.997444
0.997475
0.997487
0.997521
0.997548
0.997571
0.997571
0.99756
0.997514
0.997499
0.997511
0.997478
0.997445
0.997408
0.997414
0.997375
0.997339
0.997348
0.997329
0.99729
0.997278
0.997271
0.99726
0.99727
0.997277
0.997271
0.997322
0.997332
0.997386
0.997402
0.99748
0.997477
0.997477
0.997482
0.9975
0.99752
0.997539
0.997561
0.997582
0.997598
0.997618
0.997622
0.997612
0.99759
0.997611
0.997618
0.997612
0.997558
0.997553
0.99756
0.997537
0.997504
0.997503
0.997502
0.997472
0.997468
0.997467
0.997471
0.997388
0.997389
0.997385
0.997386
0.997286
0.997294
0.997216
0.99729
0.997314
0.997256
0.99732
0.997368
0.997332
0.997384
0.997427
0.997498
0.997453
0.997502
0.99749
0.997507
0.997568
0.997543
0.997533
0.99753
0.997532
0.997544
0.997563
0.997571
0.997589
0.997593
0.997614
0.997629
0.997646
0.997645
0.99766
0.997674
0.997676
0.997672
0.997641
0.997659
0.997654
0.997657
0.997617
0.997612
0.997563
0.997532
0.997529
0.99753
0.997533
0.99753
0.997533
0.997529
0.997466
0.997467
0.997471
0.997472
0.997393
0.997389
0.997345
0.997316
0.997388
0.997406
0.997374
0.997417
0.997474
0.997423
0.997404
0.99746
0.997508
0.99751
0.997549
0.997533
0.997575
0.997595
0.997635
0.997615
0.997604
0.997601
0.9976
0.997597
0.997599
0.997607
0.997618
0.997627
0.997637
0.997649
0.997661
0.997675
0.997679
0.997673
0.99768
0.997678
0.99768
0.99768
0.997682
0.997684
0.997687
0.997693
0.997698
0.997702
0.997684
0.997683
0.997658
0.997651
0.997625
0.99762
0.997616
0.997614
0.997612
0.997566
0.997566
0.997534
0.997526
0.997527
0.997467
0.997473
0.997444
0.997428
0.997449
0.997492
0.997456
0.9975
0.997548
0.997554
0.99758
0.997611
0.99759
0.997581
0.997547
0.99753
0.997497
0.99745
0.997391
0.99744
0.997488
0.997479
0.997435
0.997494
0.997538
0.997543
0.997546
0.997544
0.997538
0.997538
0.997487
0.997522
0.997526
0.997566
0.997577
0.997606
0.997616
0.997652
0.997639
0.997638
0.997636
0.997638
0.997639
0.997649
0.997651
0.997661
0.997662
0.997672
0.997682
0.997693
0.997696
0.997707
0.997713
0.997715
0.997713
0.997691
0.997707
0.997705
0.997692
0.997691
0.997692
0.997692
0.997694
0.997692
0.997694
0.997657
0.997657
0.997613
0.997614
0.997617
0.997621
0.997662
0.997659
0.997658
0.997659
0.997662
0.997666
0.997668
0.997659
0.997687
0.997691
0.997686
0.997706
0.997709
0.99772
0.997713
0.99771
0.997694
0.997674
0.997675
0.997643
0.997616
0.9976
0.99757
0.997563
0.997531
0.997512
0.99751
0.997517
0.997544
0.997525
0.997564
0.997582
0.997561
0.997592
0.997621
0.997623
0.997658
0.997637
0.997659
0.997654
0.997676
0.997667
0.997669
0.99767
0.997669
0.997669
0.997672
0.997682
0.997686
0.997686
0.997693
0.997703
0.997706
0.997718
0.997725
0.997727
0.997738
0.997736
0.997728
0.997726
0.997727
0.997728
0.997727
0.997728
0.997717
0.997722
0.997718
0.99772
0.99772
0.997717
0.997721
0.997693
0.997695
0.997696
0.997698
0.9977
0.997689
0.997714
0.997715
0.997708
0.997724
0.997725
0.997735
0.997731
0.997727
0.997727
0.997714
0.99771
0.997698
0.99768
0.997676
0.997648
0.997634
0.997597
0.997579
0.997594
0.997578
0.997563
0.997586
0.997612
0.997635
0.997643
0.997616
0.997605
0.997626
0.997649
0.997669
0.997685
0.997682
0.997658
0.997678
0.997675
0.997689
0.997677
0.997676
0.9977
0.997688
0.997688
0.997685
0.997685
0.997686
0.997686
0.997694
0.997693
0.9977
0.997704
0.997712
0.997721
0.997717
0.99773
0.997737
0.997735
0.997745
0.997741
0.997748
0.997748
0.997739
0.997743
0.997742
0.997742
0.99774
0.997743
0.997732
0.997739
0.997736
0.997735
0.997735
0.997734
0.997737
0.997717
0.997722
0.997695
0.997697
0.997722
0.997723
0.997713
0.997731
0.997731
0.997733
0.997739
0.997738
0.997736
0.997732
0.997727
0.997737
0.997729
0.997729
0.99773
0.997718
0.997715
0.997704
0.997692
0.997706
0.997695
0.997695
0.997708
0.997718
0.997726
0.997729
0.997726
0.997726
0.997715
0.997705
0.997701
0.997702
0.997692
0.997678
0.997658
0.997648
0.997634
0.997658
0.997675
0.997685
0.997702
0.99771
0.997711
0.99771
0.997709
0.997709
0.997709
0.99771
0.997713
0.997723
0.997732
0.997738
0.997741
0.997747
0.997753
0.997755
0.997753
0.997758
0.997754
0.997754
0.997751
0.997748
0.997746
0.997744
0.997744
0.997744
0.997746
0.997744
0.997747
0.997741
0.99774
0.997738
0.997746
0.997746
0.997741
0.997739
0.997737
0.997744
0.997746
0.997739
0.997732
0.997735
0.997736
0.997728
0.997717
0.997726
0.997723
0.997722
0.997724
0.997727
0.997735
0.997734
0.997741
0.99775
0.997757
0.997765
0.997772
0.997772
0.997775
0.997772
0.997757
0.997756
0.997759
0.997761
0.997756
0.997754
0.997759
0.997756
0.997757
0.997744
0.997748
0.997744
0.997748
0.99774
0.997739
0.997734
0.997736
0.997718
0.997722
0.997711
0.997715
0.997703
0.997708
0.99772
0.997713
0.997706
0.997715
0.997723
0.997732
0.997737
0.997743
0.997746
0.997749
0.997757
0.997754
0.997754
0.997749
0.997752
0.997747
0.997749
0.997751
0.997752
0.997751
0.997751
0.997759
0.99776
0.997769
0.99778
0.997787
0.997791
0.997789
0.997793
0.997785
0.997787
0.99778
0.997768
0.99777
0.997774
0.997773
0.997765
0.997763
0.997767
0.997762
0.997764
0.997753
0.99775
0.997744
0.997746
0.997745
0.997737
0.997741
0.997735
0.997729
0.997732
0.997741
0.99774
0.997737
0.997745
0.997742
0.997748
0.997743
0.997748
0.997749
0.99775
0.997743
0.997746
0.997746
0.997746
0.997744
0.997747
0.99775
0.997744
0.997752
0.997755
0.997761
0.997763
0.997763
0.997767
0.997772
0.997766
0.997753
0.997749
0.997755
0.997754
0.997765
0.997775
0.997771
0.997777
0.997782
0.997791
0.997799
0.997805
0.997809
0.99781
0.997815
0.997821
0.997828
0.997833
0.997834
0.99783
0.997828
0.997818
0.997811
0.997808
0.997808
0.997805
0.997798
0.997794
0.997803
0.997792
0.997789
0.997791
0.997779
0.997773
0.997775
0.997782
0.997777
0.99777
0.997769
0.997762
0.997759
0.997759
0.997756
0.997747
0.997743
0.997742
0.997745
0.997737
0.99774
0.997737
0.997739
0.997736
0.997732
0.99773
0.997733
0.997741
0.997747
0.997754
0.997755
0.997753
0.997757
0.99776
0.997766
0.99777
0.997776
0.997778
0.997788
0.997793
0.9978
0.99781
0.997818
0.997825
0.997832
0.997838
0.997839
0.997844
0.99784
0.997837
0.997829
0.997821
0.997814
0.997812
0.997801
0.997803
0.997803
0.997791
0.997791
0.997797
0.997787
0.997783
0.997789
0.997777
0.997771
0.997778
0.997784
0.997778
0.997773
0.99777
0.997773
0.997768
0.997762
0.997765
0.997752
0.997749
0.997754
0.997746
0.997744
0.997748
0.997743
0.997742
0.997744
0.997742
0.997741
0.997738
0.997742
0.997747
0.997748
0.997752
0.997749
0.997755
0.997759
0.997763
0.997767
0.997763
0.997773
0.997766
0.997773
0.99777
0.997779
0.997788
0.99779
0.997779
0.997782
0.997791
0.997794
0.9978
0.997805
0.997815
0.997823
0.997833
0.997841
0.997834
0.997838
0.997827
0.997829
0.997813
0.997806
0.9978
0.997805
0.997805
0.997809
0.997811
0.997815
0.997818
0.997816
0.997808
0.9978
0.997791
0.997783
0.997775
0.997771
0.997764
0.997762
0.997759
0.997754
0.997754
0.997751
0.997755
0.99775
0.997749
0.997746
0.99775
0.997754
0.997751
0.997752
0.997757
0.997753
0.997755
0.997757
0.997758
0.997766
0.99777
0.997771
0.997769
0.997782
0.997784
0.997794
0.997797
0.997788
0.997807
0.997813
0.99782
0.997825
0.997815
0.997813
0.997801
0.997788
0.997779
0.997776
0.99777
0.997771
0.997776
0.997779
0.997781
0.997807
0.997804
0.997804
0.997793
0.997795
0.997782
0.997788
0.997793
0.997779
0.997783
0.997787
0.997779
0.997776
0.997785
0.997772
0.997777
0.997772
0.997782
0.997769
0.997776
0.997764
0.997775
0.997766
0.997772
0.997758
0.997762
0.997761
0.997746
0.997752
0.997746
0.997745
0.99775
0.997745
0.997745
0.997746
0.997748
0.997746
0.997746
0.997747
0.997748
0.997754
0.997756
0.997748
0.997758
0.99776
0.997764
0.997765
0.997764
0.997755
0.997766
0.997757
0.997761
0.997768
0.99776
0.99777
0.997775
0.997771
0.99777
0.997775
0.997775
0.997772
0.997767
0.997763
0.997762
0.997763
0.99776
0.997761
0.997757
0.997764
0.997767
0.997764
0.997768
0.997759
0.997761
0.997764
0.99777
0.997763
0.997769
0.99777
0.997764
0.99777
0.997783
0.997784
0.997789
0.997789
0.997787
0.997783
0.997761
0.997739
0.997728
0.997719
0.997722
0.99773
0.99774
0.99775
0.997753
0.997767
0.997764
0.997785
0.997788
0.997783
0.997783
0.997783
0.997781
0.997784
0.997773
0.997783
0.99777
0.997777
0.997774
0.997783
0.997773
0.997776
0.997773
0.997792
0.997781
0.997786
0.99777
0.997787
0.997779
0.997785
0.997766
0.997772
0.997757
0.997755
0.997757
0.997757
0.997754
0.997754
0.997743
0.997746
0.997746
0.997751
0.997751
0.997747
0.997748
0.997755
0.99775
0.997761
0.997754
0.997754
0.997754
0.997753
0.997763
0.997766
0.997767
0.997766
0.997768
0.997757
0.997758
0.997766
0.997767
0.997757
0.997758
0.997762
0.99776
0.997762
0.997762
0.997758
0.997761
0.997771
0.99777
0.997759
0.997768
0.997763
0.997761
0.997775
0.997758
0.997765
0.997763
0.997762
0.997752
0.997756
0.997756
0.997758
0.997763
0.997763
0.997765
0.997765
0.997759
0.997774
0.997769
0.997798
0.997791
0.997796
0.997808
0.997821
0.997833
0.997846
0.997838
0.997842
0.997845
0.997843
0.997837
0.997835
0.997833
0.997831
0.997841
0.997841
0.997836
0.997837
0.997826
0.997834
0.997838
0.997839
0.99784
0.997834
0.997833
0.997858
0.997828
0.997826
0.997812
0.997799
0.997786
0.997774
0.997769
0.997765
0.997768
0.997772
0.997779
0.99778
0.997779
0.997809
0.997813
0.997822
0.997845
0.997856
0.997866
0.997857
0.997856
0.997865
0.997865
0.997859
0.99786
0.997859
0.997852
0.997845
0.997833
0.997838
0.997838
0.997841
0.997825
0.997834
0.997839
0.997845
0.997848
0.997873
0.997851
0.997853
0.997853
0.997856
0.997842
0.997829
0.997825
0.997802
0.997786
0.997803
0.997814
0.997826
0.997837
0.997843
0.997853
0.997865
0.997869
0.997889
0.997903
0.99792
0.997945
0.997973
0.998009
0.99805
0.998096
0.998146
0.998198
0.998251
0.998301
0.998347
0.99839
0.998429
0.99846
0.998487
0.998514
0.998531
0.998549
0.998564
0.998567
0.998545
0.998545
0.998532
0.99851
0.998507
0.998481
0.998454
0.998421
0.998416
0.998369
0.998317
0.998279
0.998223
0.998211
0.998149
0.998099
0.998046
0.997982
0.997974
0.997921
0.997897
0.997853
0.997853
0.997836
0.997815
0.997823
0.997819
0.997803
0.997818
0.997808
0.997812
0.997793
0.997798
0.997789
0.99779
0.997786
0.997765
0.997772
0.997771
0.997767
0.997754
0.997752
0.997749
0.997762
0.997757
0.997751
0.997761
0.997766
0.997769
0.997764
0.997768
0.997766
0.997767
0.99777
0.997754
0.997755
0.997772
0.997767
0.997773
0.997761
0.99776
0.997761
0.997759
0.997759
0.997759
0.997767
0.997755
0.997773
0.997764
0.997774
0.997762
0.997769
0.997772
0.997766
0.997755
0.997758
0.997765
0.997761
0.997783
0.997764
0.997765
0.997766
0.997766
0.997759
0.997758
0.997754
0.997752
0.997753
0.997755
0.997756
0.997758
0.997759
0.997762
0.997762
0.99776
0.997764
0.997762
0.997763
0.997763
0.997764
0.997763
0.997758
0.997763
0.997763
0.997754
0.99776
0.997761
0.997754
0.997747
0.997727
0.997755
0.997762
0.997775
0.997769
0.99776
0.997743
0.997715
0.997686
0.997653
0.997664
0.997658
0.997653
0.997678
0.997699
0.997723
0.997731
0.99773
0.997756
0.99775
0.997752
0.997765
0.997775
0.997765
0.997761
0.997769
0.997776
0.997759
0.997769
0.997781
0.997772
0.997775
0.997797
0.997783
0.997782
0.997811
0.997801
0.997805
0.997786
0.997809
0.997807
0.997809
0.997783
0.997787
0.997791
0.997794
0.997825
0.997822
0.997816
0.997813
0.997818
0.99782
0.997819
0.997822
0.997826
0.997817
0.99781
0.99783
0.997823
0.997834
0.997821
0.997842
0.997859
0.99786
0.997903
0.997926
0.997978
0.997989
0.998055
0.9981
0.998154
0.998208
0.998264
0.998269
0.998272
0.998328
0.998366
0.998416
0.998448
0.998454
0.99848
0.998506
0.99851
0.998509
0.998479
0.998481
0.998452
0.998416
0.998375
0.998317
0.998312
0.998259
0.99821
0.998158
0.998105
0.998055
0.99799
0.997986
0.997938
0.997909
0.997866
0.997869
0.997849
0.997853
0.997829
0.997836
0.997831
0.997837
0.99784
0.997828
0.997825
0.997826
0.997829
0.997844
0.99784
0.997834
0.99784
0.997841
0.997841
0.997848
0.997865
0.997893
0.997872
0.997867
0.997864
0.997878
0.9979
0.997922
0.997912
0.99795
0.997961
0.997987
0.998018
0.998055
0.998114
0.998166
0.998219
0.998267
0.998317
0.99832
0.998381
0.99842
0.998455
0.998485
0.998511
0.998509
0.998528
0.998533
0.998531
0.998533
0.998545
0.998563
0.99856
0.998561
0.998544
0.998545
0.998562
0.998561
0.998562
0.998544
0.998547
0.998531
0.998533
0.998514
0.99849
0.998461
0.998426
0.998382
0.998336
0.998291
0.998239
0.998193
0.998141
0.998086
0.998039
0.997997
0.997962
0.997934
0.997911
0.997921
0.997904
0.997938
0.997969
0.998002
0.998046
0.998091
0.998144
0.998188
0.998238
0.998269
0.998256
0.998305
0.998354
0.998401
0.998435
0.998469
0.998497
0.998519
0.998538
0.998554
0.99855
0.998565
0.998563
0.998572
0.998576
0.998573
0.998576
0.998572
0.998571
0.998577
0.998561
0.998563
0.998566
0.998549
0.998534
0.998515
0.998494
0.998456
0.998457
0.998423
0.99842
0.998382
0.998371
0.998336
0.998286
0.998269
0.998212
0.998161
0.998115
0.998096
0.998033
0.997992
0.997936
0.997925
0.997885
0.99784
0.997848
0.997826
0.997803
0.997815
0.99781
0.997795
0.997805
0.997799
0.997783
0.997792
0.99778
0.997773
0.997778
0.997775
0.997787
0.997782
0.997771
0.997787
0.997778
0.997777
0.997776
0.997776
0.997777
0.997782
0.997786
0.997784
0.997818
0.997821
0.997848
0.997854
0.997842
0.997861
0.997872
0.997873
0.997876
0.997878
0.997874
0.997874
0.997874
0.997869
0.99786
0.997848
0.99786
0.997872
0.997883
0.997893
0.997914
0.997939
0.997975
0.997957
0.997943
0.99795
0.997972
0.997972
0.997966
0.997979
0.997994
0.998037
0.998105
0.998152
0.998157
0.998208
0.998202
0.998219
0.998275
0.998321
0.998331
0.998368
0.998414
0.998424
0.99845
0.998465
0.998484
0.998512
0.99853
0.99855
0.998545
0.998551
0.998562
0.998565
0.998565
0.998567
0.99855
0.998538
0.998519
0.998498
0.998459
0.998467
0.998434
0.998404
0.998365
0.998319
0.998267
0.998211
0.998146
0.998094
0.99805
0.99801
0.997978
0.997948
0.997951
0.997929
0.99794
0.997942
0.997947
0.997941
0.997936
0.997935
0.997922
0.997922
0.997916
0.997954
0.997984
0.998018
0.998053
0.998116
0.998123
0.998123
0.998172
0.998215
0.998222
0.99827
0.998334
0.998343
0.998344
0.998318
0.998363
0.9984
0.998436
0.998456
0.998448
0.998481
0.998507
0.998525
0.998544
0.998559
0.998572
0.998568
0.998579
0.998576
0.998589
0.998585
0.998586
0.998584
0.998587
0.998584
0.998589
0.998591
0.998592
0.998581
0.998582
0.998567
0.998571
0.998555
0.998542
0.998523
0.998497
0.998474
0.998444
0.998418
0.998381
0.998344
0.998296
0.998244
0.998189
0.998138
0.998129
0.998097
0.998098
0.998103
0.998102
0.998086
0.998094
0.998093
0.998076
0.998061
0.998122
0.998138
0.998193
0.99818
0.998171
0.99822
0.998268
0.998317
0.998367
0.998406
0.998439
0.998473
0.998498
0.99852
0.998539
0.998555
0.998569
0.998581
0.998594
0.998604
0.998616
0.998625
0.998636
0.99865
0.998667
0.998668
0.998644
0.998642
0.998627
0.998621
0.998609
0.99861
0.998598
0.998602
0.998585
0.998595
0.998599
0.998583
0.998594
0.998598
0.998583
0.998587
0.998589
0.998591
0.998594
0.998597
0.998583
0.998576
0.998564
0.998554
0.998531
0.998543
0.998555
0.998568
0.998567
0.998573
0.998581
0.998592
0.998594
0.998591
0.998594
0.998601
0.998591
0.998583
0.998571
0.998557
0.99854
0.99852
0.998501
0.99848
0.998474
0.998474
0.99848
0.998487
0.998482
0.998495
0.998493
0.998496
0.998492
0.998488
0.998485
0.998481
0.998477
0.998472
0.99846
0.998447
0.99844
0.99845
0.998457
0.998462
0.998462
0.998491
0.998454
0.998463
0.998459
0.998456
0.998446
0.998438
0.998437
0.99844
0.998466
0.998491
0.998512
0.998532
0.998547
0.998562
0.998574
0.998583
0.998584
0.998588
0.9986
0.998605
0.998607
0.998605
0.998614
0.998599
0.998602
0.998607
0.998609
0.998618
0.99861
0.99861
0.998611
0.998617
0.998617
0.99862
0.998622
0.998621
0.998626
0.998621
0.99862
0.998618
0.998615
0.998615
0.998613
0.998614
0.998614
0.998603
0.998605
0.998601
0.998608
0.99861
0.998608
0.998612
0.998626
0.998606
0.998609
0.998608
0.998606
0.998602
0.998598
0.998594
0.998593
0.9986
0.998597
0.998591
0.998583
0.998588
0.998577
0.99858
0.998583
0.998588
0.998592
0.998596
0.998593
0.998597
0.998599
0.998593
0.9986
0.998595
0.998592
0.998595
0.998598
0.998601
0.998581
0.998578
0.998576
0.998573
0.99856
0.99856
0.998555
0.998561
0.998563
0.998565
0.998586
0.998582
0.998584
0.99858
0.998581
0.998577
0.998574
0.99857
0.998566
0.998563
0.998557
0.998571
0.99857
0.998583
0.998591
0.998599
0.998606
0.998612
0.998611
0.998617
0.998624
0.998625
0.99863
0.998634
0.998632
0.998636
0.998639
0.998645
0.998644
0.998641
0.998649
0.998649
0.998652
0.998651
0.99865
0.998645
0.998644
0.998647
0.998633
0.998636
0.998631
0.998634
0.998635
0.998635
0.99864
0.998635
0.998637
0.998645
0.99863
0.998634
0.998631
0.998626
0.998628
0.998624
0.998618
0.998606
0.998612
0.998616
0.99862
0.998626
0.998633
0.998638
0.998638
0.998643
0.998643
0.99865
0.998654
0.998653
0.99866
0.998656
0.998661
0.998659
0.998658
0.998658
0.998659
0.998661
0.998662
0.99866
0.998637
0.998638
0.998639
0.998627
0.998617
0.998618
0.998603
0.998604
0.998606
0.998607
0.998618
0.998631
0.998631
0.998623
0.99861
0.998596
0.998586
0.998571
0.99857
0.998573
0.998585
0.998595
0.998583
0.99858
0.998583
0.998592
0.998594
0.998605
0.998621
0.998631
0.998646
0.998659
0.998673
0.998685
0.998699
0.998709
0.998723
0.99873
0.998744
0.99875
0.998762
0.998768
0.998779
0.998783
0.998793
0.998797
0.998806
0.998809
0.998824
0.998822
0.998832
0.998834
0.998844
0.998847
0.998859
0.998864
0.998873
0.998885
0.998899
0.998922
0.998942
0.998973
0.998995
0.998998
0.998995
0.998994
0.998989
0.998987
0.998988
0.998991
0.998982
0.998963
0.998944
0.998932
0.998926
0.998909
0.998895
0.998884
0.998874
0.998863
0.998849
0.998855
0.998853
0.998862
0.998873
0.998884
0.998894
0.998906
0.998924
0.998922
0.998941
0.998965
0.998965
0.998967
0.998966
0.998965
0.998967
0.998968
0.998966
0.998969
0.998972
0.998999
0.999018
0.999016
0.999022
0.999015
0.999016
0.999014
0.999014
0.999007
0.998988
0.999021
0.999012
0.999009
0.998986
0.998965
0.998946
0.998933
0.998914
0.998901
0.99889
0.998879
0.998868
0.998853
0.998855
0.99884
0.998836
0.998829
0.998825
0.998821
0.998816
0.998811
0.998807
0.998802
0.998796
0.998788
0.998789
0.998785
0.998786
0.998788
0.998791
0.998791
0.99879
0.998788
0.998784
0.998794
0.998801
0.998806
0.99881
0.998815
0.998819
0.998823
0.998827
0.998831
0.998835
0.998839
0.998841
0.998836
0.998832
0.998829
0.998826
0.998821
0.998818
0.998813
0.998808
0.998803
0.998797
0.998799
0.998805
0.99881
0.998814
0.998819
0.998823
0.998828
0.998831
0.998834
0.998838
0.998839
0.998843
0.998845
0.998855
0.998861
0.998873
0.998883
0.998888
0.998907
0.998895
0.998911
0.998915
0.998945
0.998947
0.998946
0.998941
0.998933
0.998939
0.998944
0.998943
0.998973
0.998974
0.998999
0.998998
0.998998
0.999026
0.999042
0.999042
0.999041
0.999038
0.999042
0.999044
0.999042
0.999036
0.999042
0.999033
0.999048
0.999052
0.999022
0.998994
0.998973
0.998949
0.998949
0.998954
0.998973
0.998995
0.99902
0.999019
0.999049
0.999068
0.999067
0.999069
0.999089
0.999088
0.999078
0.999051
0.99903
0.999004
0.998978
0.998956
0.998935
0.998941
0.998939
0.998927
0.99892
0.998905
0.998893
0.998882
0.99887
0.998854
0.998858
0.998841
0.998836
0.998828
0.998822
0.998819
0.998811
0.998813
0.99881
0.998806
0.998801
0.998795
0.99879
0.998782
0.998776
0.998767
0.998758
0.998748
0.998735
0.998734
0.998731
0.998722
0.998723
0.998725
0.998731
0.99873
0.99873
0.998726
0.99872
0.998732
0.998743
0.998754
0.998763
0.998773
0.998776
0.998778
0.998785
0.998793
0.998799
0.998804
0.99881
0.998812
0.99882
0.998823
0.998829
0.998835
0.998844
0.998851
0.998861
0.998871
0.998883
0.998896
0.99891
0.998929
0.998948
0.99897
0.998995
0.999017
0.999037
0.999057
0.999054
0.999058
0.999056
0.99904
0.999073
0.999088
0.999093
0.999089
0.999109
0.999113
0.999115
0.999099
0.999078
0.999047
0.999044
0.999048
0.999071
0.999074
0.999092
0.999118
0.999132
0.99915
0.999165
0.999168
0.999169
0.999172
0.99916
0.999144
0.999139
0.999148
0.999159
0.999138
0.999124
0.999121
0.99914
0.999141
0.999145
0.999157
0.999178
0.999176
0.999174
0.999197
0.999188
0.999182
0.99917
0.999158
0.999138
0.999117
0.999114
0.999119
0.999137
0.999136
0.999152
0.999167
0.999181
0.999191
0.999202
0.999203
0.999199
0.999218
0.999216
0.999208
0.999197
0.999178
0.999184
0.999184
0.999195
0.999207
0.999208
0.999218
0.999232
0.999231
0.99923
0.999247
0.99925
0.99923
0.999231
0.999233
0.999235
0.999247
0.999263
0.999261
0.999266
0.999269
0.999263
0.999243
0.999224
0.999228
0.999225
0.999209
0.999208
0.999187
0.999188
0.999167
0.999157
0.999131
0.999125
0.999118
0.999088
0.999061
0.999056
0.999047
0.999007
0.998987
0.99896
0.998966
0.998943
0.998944
0.998923
0.998911
0.998896
0.998899
0.998882
0.998871
0.998873
0.998855
0.998852
0.998846
0.998836
0.998825
0.998829
0.99882
0.998818
0.998812
0.998808
0.998804
0.998799
0.998797
0.998794
0.998789
0.998782
0.998775
0.998766
0.998757
0.998748
0.998738
0.998726
0.998718
0.998704
0.998692
0.998678
0.998665
0.998649
0.998649
0.998655
0.998663
0.998672
0.998673
0.998673
0.998666
0.998658
0.998677
0.998688
0.998704
0.998712
0.998719
0.998723
0.998731
0.998744
0.998753
0.998763
0.998771
0.998779
0.998786
0.998793
0.998797
0.998804
0.998808
0.998816
0.99882
0.998828
0.998833
0.998845
0.998851
0.998863
0.998873
0.998885
0.998899
0.998914
0.998933
0.998954
0.998977
0.999001
0.999025
0.999047
0.999062
0.999082
0.99909
0.999094
0.999098
0.9991
0.999102
0.999103
0.999094
0.999122
0.999132
0.999144
0.999162
0.999156
0.999177
0.999183
0.999184
0.999195
0.999214
0.999212
0.999227
0.999245
0.999245
0.99926
0.999276
0.999278
0.999295
0.999294
0.999291
0.999286
0.999283
0.999286
0.999263
0.999253
0.999235
0.999233
0.999214
0.999198
0.9992
0.999192
0.999171
0.999158
0.999158
0.999129
0.999123
0.999122
0.999093
0.999091
0.99906
0.999058
0.999023
0.99902
0.998986
0.998989
0.998962
0.998964
0.998947
0.998949
0.998928
0.998914
0.998915
0.998895
0.998898
0.998885
0.998888
0.998869
0.998856
0.998859
0.998842
0.998836
0.998826
0.998824
0.998827
0.998816
0.998814
0.998807
0.998803
0.998798
0.998795
0.99879
0.998784
0.998777
0.998768
0.998759
0.998749
0.998739
0.998727
0.998716
0.998702
0.998689
0.998675
0.998661
0.99865
0.998635
0.998625
0.998609
0.998597
0.998584
0.99859
0.998578
0.998564
0.998553
0.998534
0.99853
0.998536
0.998551
0.998562
0.998549
0.998529
0.99853
0.998534
0.99855
0.998559
0.998562
0.998573
0.998589
0.998598
0.998612
0.998624
0.998638
0.99865
0.998664
0.998677
0.99869
0.998701
0.998714
0.998724
0.998737
0.998745
0.998757
0.998764
0.998775
0.99878
0.99879
0.998794
0.998802
0.998804
0.998813
0.998818
0.998828
0.998833
0.998843
0.998851
0.998862
0.99887
0.998882
0.998895
0.998911
0.998932
0.998954
0.998979
0.999003
0.999024
0.999045
0.99906
0.999075
0.999076
0.999076
0.999075
0.999077
0.999078
0.999082
0.999073
0.999073
0.999073
0.999072
0.999068
0.99909
0.999101
0.999105
0.999111
0.999115
0.999121
0.999116
0.999116
0.99914
0.999156
0.999152
0.999173
0.999186
0.999192
0.999202
0.999194
0.999221
0.999228
0.99923
0.999256
0.999258
0.999279
0.999274
0.999291
0.999292
0.999306
0.999306
0.999311
0.999302
0.999302
0.999288
0.999287
0.999268
0.999258
0.999241
0.999242
0.999219
0.999221
0.999199
0.999199
0.99919
0.999189
0.999162
0.999165
0.999139
0.99913
0.999123
0.999087
0.99909
0.999059
0.999024
0.999017
0.998992
0.998991
0.998965
0.998949
0.998945
0.998932
0.998933
0.99891
0.998901
0.998886
0.998882
0.998869
0.998873
0.998852
0.998845
0.998834
0.998823
0.998823
0.998816
0.998811
0.998803
0.998806
0.998799
0.998798
0.998793
0.998787
0.99878
0.998772
0.998763
0.998753
0.998741
0.99873
0.998717
0.998705
0.99869
0.998679
0.998662
0.998649
0.998641
0.998627
0.998617
0.998604
0.998593
0.998593
0.998603
0.998616
0.998627
0.998629
0.998638
0.998652
0.998667
0.998673
0.998671
0.998655
0.998653
0.998665
0.998678
0.998691
0.998694
0.998683
0.998678
0.99868
0.998656
0.998657
0.998657
0.998642
0.998621
0.998622
0.998613
0.998616
0.998604
0.998605
0.9986
0.998606
0.998606
0.998601
0.998603
0.998605
0.99861
0.998614
0.998611
0.998618
0.998619
0.998625
0.998631
0.998635
0.998624
0.998623
0.998629
0.998636
0.998634
0.998644
0.998649
0.998655
0.998649
0.998659
0.998663
0.998662
0.99867
0.998669
0.998667
0.998675
0.998673
0.998676
0.998678
0.998678
0.99868
0.998681
0.998677
0.998676
0.998677
0.998678
0.998685
0.998689
0.998692
0.998695
0.998696
0.998694
0.998697
0.998695
0.998676
0.998677
0.998691
0.998694
0.998692
0.99869
0.998684
0.998695
0.998706
0.99871
0.998701
0.998706
0.998715
0.99872
0.998719
0.998721
0.998732
0.998732
0.998744
0.998745
0.998744
0.998742
0.998739
0.998747
0.998757
0.998766
0.998773
0.998776
0.99877
0.99876
0.998751
0.998755
0.998762
0.998772
0.998779
0.998783
0.998775
0.998765
0.998765
0.998766
0.998775
0.998781
0.998789
0.99879
0.998791
0.998789
0.9988
0.998799
0.998799
0.998806
0.998812
0.998816
0.998822
0.998825
0.99883
0.998833
0.998836
0.998839
0.998838
0.998844
0.998845
0.998849
0.998851
0.99885
0.998865
0.998871
0.998882
0.998881
0.998893
0.998914
0.99891
0.998914
0.998912
0.998907
0.998904
0.998905
0.998908
0.998885
0.998882
0.998882
0.998867
0.998859
0.998858
0.998859
0.998854
0.998853
0.998863
0.998858
0.998861
0.998871
0.998862
0.99886
0.998883
0.99888
0.998883
0.998913
0.998908
0.998915
0.998911
0.998918
0.998926
0.99895
0.998956
0.998978
0.998997
0.999023
0.99902
0.999018
0.999047
0.999058
0.999058
0.99906
0.999062
0.999058
0.999055
0.999054
0.999058
0.999073
0.999072
0.999077
0.999087
0.999099
0.999098
0.999105
0.999109
0.999113
0.999136
0.999152
0.999149
0.99917
0.999181
0.999181
0.999185
0.99919
0.999215
0.999234
0.999241
0.999239
0.999238
0.999266
0.999267
0.999288
0.999287
0.999277
0.9993
0.999302
0.999303
0.999315
0.999315
0.999318
0.999321
0.999319
0.999311
0.999316
0.999317
0.999317
0.99932
0.999325
0.999326
0.999323
0.999324
0.999321
0.999312
0.999316
0.999304
0.999289
0.999288
0.99927
0.999259
0.999262
0.999241
0.999243
0.999232
0.999229
0.999206
0.999211
0.999186
0.999181
0.999169
0.999168
0.999138
0.999124
0.99912
0.999094
0.999093
0.999053
0.999057
0.999025
0.999022
0.998989
0.998968
0.998974
0.998953
0.998957
0.998931
0.998919
0.998899
0.998905
0.998901
0.99888
0.99887
0.998857
0.998842
0.998847
0.99883
0.998827
0.998823
0.998815
0.998809
0.998803
0.998798
0.998793
0.998787
0.998779
0.998772
0.998762
0.998752
0.99874
0.99873
0.998717
0.998705
0.998696
0.998694
0.998688
0.998689
0.998666
0.998668
0.998669
0.998652
0.998641
0.998624
0.998624
0.998616
0.998603
0.998598
0.998615
0.998625
0.998621
0.998623
0.998624
0.998624
0.998625
0.998618
0.998605
0.998609
0.998607
0.998609
0.998607
0.998608
0.998621
0.99862
0.998629
0.998616
0.998616
0.998617
0.99862
0.998627
0.998627
0.998625
0.998625
0.998619
0.998617
0.998625
0.998633
0.998642
0.998643
0.998645
0.998643
0.998651
0.998634
0.998634
0.998636
0.998644
0.998652
0.998659
0.998664
0.998664
0.998672
0.998671
0.998679
0.998676
0.998685
0.998682
0.998697
0.998698
0.998699
0.998701
0.998703
0.998707
0.998708
0.998705
0.998705
0.998717
0.998728
0.998738
0.998749
0.998758
0.998767
0.998776
0.998783
0.998791
0.998797
0.998806
0.99881
0.998819
0.998821
0.99883
0.998833
0.99884
0.99884
0.998848
0.998848
0.998856
0.998857
0.998868
0.998877
0.998888
0.998908
0.998923
0.99894
0.998968
0.99899
0.99901
0.999013
0.999008
0.999005
0.998992
0.998966
0.998941
0.998942
0.998965
0.998981
0.998992
0.999014
0.999039
0.999057
0.999073
0.999085
0.999097
0.999114
0.999124
0.999133
0.99915
0.999159
0.999166
0.99918
0.99919
0.999203
0.999205
0.99921
0.999227
0.999228
0.999234
0.999263
0.999273
0.999278
0.999296
0.999294
0.999284
0.999307
0.999306
0.999315
0.999312
0.999322