/*--------------------------------*- C++ -*----------------------------------*\
| =========                 |                                                 |
| \\      /  F ield         | OpenFOAM: The Open Source CFD Toolbox           |
|  \\    /   O peration     | Version:  5.0                                   |
|   \\  /    A nd           | Web:      www.OpenFOAM.org                      |
|    \\/     M anipulation  |                                                 |
\*---------------------------------------------------------------------------*/
FoamFile
{
    version     2.0;
    format      ascii;
    class       volScalarField;
    location    "60";
    object      p;
}
// * * * * * * * * * * * * * * * * * * * * * * * * * * * * * * * * * * * * * //

dimensions      [1 -1 -2 0 0 0 0];

internalField   nonuniform List<scalar> 
36178
(
7166.27
7173.55
7175.94
7171.86
7161.42
7161.76
7168.15
7174.78
7183.3
7192.64
7195.15
7189.96
7188.63
7175.6
7172.06
7158.89
7156.28
7164.91
7165.84
7165.86
7165.4
7168.89
7175.32
7183.59
7192.66
7200.22
7206.51
7207.23
7205.31
7202.2
7203.17
7198.48
7198.9
7187.36
7175.16
7171.98
7159.01
7156.38
7156.87
7165.13
7170.26
7165.03
7166.76
7180
7179.95
7180.25
7180.57
7183.53
7193
7200.92
7205.32
7210.5
7214.4
7214.56
7213.3
7211.12
7211.5
7209.95
7210.19
7202.57
7201.95
7195.82
7187.14
7174.45
7171.03
7158.92
7157.99
7165.47
7161.44
7165.85
7167.28
7168.14
7169.44
7167.51
7166.54
7174.5
7173.99
7172.92
7172.36
7172.53
7174.32
7188.34
7181.46
7183.53
7197.39
7197.36
7197.68
7198.73
7201.09
7205.95
7211.05
7212.35
7215.42
7215.74
7213.72
7210.71
7212.87
7210.03
7209.89
7209.73
7210.08
7211
7211.2
7207.76
7200.6
7193.24
7187.31
7178.19
7172.22
7166.47
7162.33
7165.45
7173.43
7182.89
7192.94
7202.49
7198.95
7203.24
7210.36
7207.9
7205.2
7205.28
7205.54
7207.54
7209.59
7210.72
7213.84
7215.43
7217.81
7219.71
7220.03
7218.69
7217.45
7219.46
7219.5
7218.88
7217.16
7217.52
7216.32
7216.68
7211.52
7211.83
7209.77
7204.59
7204.98
7196.14
7192.37
7182.91
7182.25
7192.43
7201.29
7207.63
7211.48
7211.74
7215.79
7214.2
7213.65
7213.39
7213.11
7213.3
7214.86
7217.16
7218.53
7219.47
7221.5
7223.05
7223.33
7222.39
7221.42
7223.03
7223.1
7222.82
7221.46
7221.62
7221
7221.15
7217.53
7217.67
7216.63
7216.69
7213.58
7211.79
7208.35
7206.99
7211.49
7215.2
7214.8
7216.78
7214.05
7216.26
7218.9
7217.74
7217.54
7216.45
7214.26
7213.82
7210.57
7211.03
7214.16
7216.65
7218.57
7219.34
7222.36
7220.95
7219.63
7219.99
7220.42
7220.93
7222.29
7223.01
7224.12
7224.67
7226
7227.02
7227.85
7227.91
7227.42
7225.89
7225.27
7225.7
7224.5
7223.25
7221.79
7222
7220.4
7219.06
7219.36
7218.42
7217.11
7216.82
7216.51
7215.9
7216.21
7216.63
7216.39
7218.34
7218.55
7220.59
7221.27
7224.02
7223.95
7223.96
7224.19
7225
7225.73
7226.56
7227.43
7228.23
7228.84
7229.56
7229.76
7229.28
7228.55
7229.29
7229.6
7229.24
7227.45
7227.21
7227.47
7226.69
7225.55
7225.6
7225.44
7224.43
7224.41
7224.18
7224.26
7221.57
7221.58
7221.14
7221.09
7217.87
7217.86
7214.89
7217.42
7218.36
7216.12
7218.38
7220.01
7218.55
7220.34
7222.12
7224.66
7223.11
7224.97
7224.32
7225.25
7227.3
7226.48
7225.95
7225.88
7225.99
7226.61
7227.31
7227.7
7228.37
7228.6
7229.39
7229.95
7230.6
7230.62
7231.09
7231.61
7231.74
7231.47
7230.5
7231.02
7230.95
7230.9
7229.56
7229.24
7227.6
7226.55
7226.36
7226.46
7226.54
7226.39
7226.51
7226.27
7224.28
7224.28
7224.23
7224.17
7221.63
7221.27
7219.64
7218.48
7220.99
7221.61
7220.36
7221.89
7223.89
7221.98
7221.25
7223.44
7225.14
7225.24
7226.73
7226
7227.53
7228.48
7229.8
7229.22
7228.66
7228.63
7228.62
7228.56
7228.65
7229.03
7229.44
7229.81
7230.25
7230.72
7231.16
7231.66
7231.86
7231.56
7231.84
7231.77
7231.81
7231.73
7231.66
7231.64
7231.69
7231.8
7231.94
7232.03
7231.54
7231.43
7230.67
7230.33
7229.55
7229.31
7229.23
7229.2
7229.21
7227.66
7227.63
7226.47
7226.15
7226.11
7224.25
7224.29
7223.22
7222.5
7223.26
7224.75
7223.4
7224.95
7226.63
7226.83
7227.8
7228.88
7228.21
7227.88
7226.62
7226.06
7224.73
7222.98
7220.79
7222.76
7224.51
7224.26
7222.53
7224.64
7226.29
7226.61
7226.7
7226.67
7226.36
7226.3
7224.48
7225.89
7225.95
7227.41
7227.72
7228.85
7229.34
7230.5
7230.13
7229.96
7230
7230.07
7230.23
7230.61
7230.71
7231.06
7231.14
7231.55
7231.93
7232.36
7232.5
7232.86
7233.03
7233.12
7233.01
7232.35
7232.73
7232.73
7232.25
7232.11
7232.2
7232.22
7232.23
7232.18
7232.13
7230.96
7230.82
7229.41
7229.39
7229.42
7229.52
7230.8
7230.77
7230.78
7230.97
7230.99
7231.07
7231.08
7230.72
7231.58
7231.79
7231.58
7232.14
7232.25
7232.5
7232.31
7232.23
7231.78
7231.19
7231.14
7230.13
7229.18
7228.55
7227.58
7227.24
7226.28
7225.64
7225.4
7225.71
7226.66
7225.95
7227.28
7227.93
7227.16
7228.29
7229.35
7229.43
7230.58
7229.95
7230.76
7230.53
7231.28
7231.08
7231.2
7231.29
7231.3
7231.34
7231.49
7231.89
7232.06
7232.05
7232.36
7232.72
7232.89
7233.3
7233.5
7233.59
7233.75
7233.71
7233.4
7233.33
7233.36
7233.42
7233.28
7233.32
7232.99
7233.06
7232.99
7233.06
7232.97
7232.87
7232.96
7232.12
7232.1
7232.05
7232.03
7232.16
7231.75
7232.41
7232.5
7232.27
7232.61
7232.64
7232.74
7232.68
7232.62
7232.6
7232.31
7232.24
7231.91
7231.37
7231.21
7230.3
7229.77
7228.48
7227.79
7228.38
7227.77
7227.18
7228.05
7229.01
7229.85
7230.08
7229.14
7228.78
7229.53
7230.33
7231
7231.5
7231.4
7230.64
7231.34
7231.18
7231.63
7231.35
7231.37
7232.06
7231.8
7231.74
7231.76
7231.8
7231.89
7231.93
7232.27
7232.25
7232.53
7232.69
7233.03
7233.36
7233.29
7233.77
7233.94
7233.86
7233.96
7233.89
7233.85
7233.77
7233.54
7233.68
7233.67
7233.66
7233.45
7233.48
7233.25
7233.42
7233.39
7233.35
7233.21
7233.17
7233.25
7232.79
7232.89
7232.13
7232.11
7232.79
7232.8
7232.45
7232.87
7232.8
7232.81
7232.8
7232.71
7232.68
7232.63
7232.54
7232.69
7232.59
7232.67
7232.66
7232.45
7232.35
7232.14
7231.78
7232.11
7231.81
7231.85
7232.21
7232.45
7232.66
7232.75
7232.68
7232.77
7232.58
7232.21
7232.02
7232.05
7231.77
7231.31
7230.62
7230.34
7229.85
7230.71
7231.27
7231.6
7232.13
7232.42
7232.42
7232.52
7232.6
7232.69
7232.77
7232.83
7233.04
7233.5
7233.9
7234.18
7234.26
7234.41
7234.45
7234.47
7234.39
7234.58
7234.29
7234.05
7233.72
7233.38
7233.07
7232.83
7232.65
7232.53
7232.42
7232.31
7232.53
7232.61
7232.63
7232.65
7232.68
7232.68
7232.71
7232.78
7232.81
7232.98
7233.17
7233.17
7232.87
7233.1
7233.3
7233.12
7232.71
7233.07
7233.1
7233.17
7233.34
7233.52
7233.89
7233.93
7234.31
7234.69
7234.96
7235.2
7235.25
7235.2
7234.98
7234.83
7234.25
7234.26
7234.35
7234.39
7234.03
7233.95
7233.86
7233.64
7233.76
7233.49
7233.43
7233.18
7233.37
7233.26
7233.07
7233.02
7233.1
7232.71
7232.81
7232.47
7232.51
7232.14
7232.24
7232.52
7232.32
7232.14
7232.36
7232.56
7232.71
7232.81
7232.89
7232.92
7233.06
7233.14
7233.31
7233.44
7233.57
7233.71
7233.79
7234.02
7234.26
7234.43
7234.5
7234.54
7234.95
7235.12
7235.61
7236.1
7236.31
7236.19
7236.03
7235.75
7235.43
7235.05
7234.7
7234.26
7234.32
7234.55
7234.42
7233.95
7233.88
7233.74
7233.42
7233.52
7233.34
7233.02
7233
7233.15
7232.98
7232.91
7233.01
7233.04
7232.81
7232.8
7232.91
7232.82
7232.72
7232.73
7232.58
7232.46
7232.21
7232.05
7232.15
7232.28
7232.37
7232.59
7232.51
7232.63
7232.48
7232.4
7232.65
7232.71
7232.78
7232.89
7232.91
7233.29
7233.59
7233.97
7234.41
7234.45
7233.85
7233.6
7233.67
7233.4
7233.81
7234.14
7233.83
7234.36
7234.93
7235.63
7236.39
7237
7237.41
7237.73
7238.19
7238.58
7239.01
7239.21
7238.97
7238.35
7237.68
7237.09
7236.81
7236.99
7236.49
7236.13
7235.63
7235.5
7235.9
7235.2
7235.01
7234.76
7234.19
7233.96
7234.07
7234.42
7234.17
7233.69
7233.58
7233.11
7233.06
7233.16
7232.85
7232.76
7232.82
7232.64
7232.82
7232.76
7232.84
7232.81
7232.76
7232.74
7232.69
7232.66
7232.68
7232.77
7232.85
7232.96
7232.77
7232.56
7232.53
7232.49
7232.95
7233.42
7233.52
7234.03
7234.69
7235.32
7236.06
7236.91
7237.71
7238.39
7239
7239.45
7239.61
7239.93
7239.56
7239.01
7238.12
7237.22
7236.72
7236.07
7235.48
7235.75
7235.3
7234.71
7234.84
7235.02
7234.46
7234.22
7234.1
7233.47
7233.43
7233.68
7233.99
7233.72
7233.27
7233.07
7233.29
7233.08
7232.61
7232.82
7232.63
7232.28
7232.58
7232.56
7232.35
7232.56
7232.68
7232.58
7232.64
7232.67
7232.7
7232.72
7232.67
7232.68
7232.53
7232.46
7232.29
7232.17
7232.25
7232.14
7232.04
7232.4
7232.99
7232.49
7232.39
7232.71
7233.43
7234.19
7234.7
7234.16
7234.35
7235.1
7235.17
7235.46
7236.15
7237.03
7237.83
7238.73
7239.24
7239.08
7239.34
7238.52
7238.65
7237.19
7236.5
7235.85
7236.3
7236.59
7237.2
7237.13
7237.45
7237.44
7236.94
7236.18
7235.3
7234.46
7233.67
7232.87
7232.25
7231.55
7231.07
7230.52
7230.13
7230.41
7230.68
7231.14
7231.45
7231.75
7231.98
7232.27
7232.15
7231.96
7231.73
7232.09
7231.79
7231.58
7231.38
7231.16
7231.83
7231.59
7232.04
7232.41
7233.24
7233.79
7234.6
7235.16
7234.76
7235.99
7236.7
7237.41
7237.69
7237.19
7237.17
7236.12
7235.12
7234.38
7234.25
7233.92
7233.9
7233.96
7234.35
7234.61
7235.99
7235.92
7235.45
7234.78
7234.5
7233.89
7234.42
7234.24
7233.66
7233.92
7233.97
7233.5
7233.25
7233.32
7232.71
7232.99
7233.05
7233.16
7232.48
7232.84
7232.63
7232.72
7232.18
7232.5
7232.21
7232.48
7232.2
7231.96
7232.33
7231.92
7231.85
7232.19
7232.31
7232.28
7232.33
7232.14
7231.85
7231.7
7231.86
7231.54
7231.23
7231.25
7230.72
7230.45
7230.53
7230.26
7229.99
7229.77
7229.91
7230.65
7230.85
7230.99
7230.87
7230.94
7231.68
7232.18
7232.37
7232.43
7232.81
7233.12
7232.62
7232.01
7231.51
7231.16
7230.76
7230.26
7230.05
7229.74
7230.36
7230.16
7230.44
7230.87
7230.82
7231.01
7231.28
7231.8
7231.13
7231.53
7231.8
7231.75
7232.27
7233.23
7233.69
7234.17
7234.3
7234.28
7234.15
7232.62
7230.86
7230.22
7229.65
7230.14
7230.81
7231.62
7232.17
7232.49
7232.73
7232.65
7234.21
7234.73
7234.08
7234.06
7233.77
7233.76
7233.67
7233.11
7233.24
7232.64
7233.27
7232.88
7233.04
7232.52
7232.49
7232.54
7233.05
7232.46
7232.74
7232.28
7232.66
7232.19
7232.49
7231.85
7232.23
7231.86
7231.5
7231.79
7231.96
7231.53
7231.72
7231.78
7231.82
7231.91
7231.75
7231.41
7231.18
7231.38
7231.06
7230.53
7230.24
7229.67
7229.94
7229.58
7229.3
7229.25
7229.35
7229.16
7229.61
7229.47
7229.53
7229.65
7229.64
7229.98
7229.92
7229.96
7230.18
7229.78
7229.52
7229.13
7228.74
7228.75
7228.75
7228.6
7228.7
7229.33
7228.88
7228.46
7228.77
7228.53
7229.18
7229.46
7229.74
7229.56
7229.7
7229.43
7229.14
7229.4
7229.01
7228.66
7228.19
7228.01
7228.27
7227.82
7228.97
7229.08
7229.48
7230.21
7230.9
7231.55
7232.17
7231.79
7232.03
7232.17
7232.31
7232.23
7232.22
7232.21
7232.19
7232.67
7233.18
7233.53
7233.73
7232.96
7232.75
7232.89
7232.86
7232.79
7232.4
7232.33
7232.95
7232.07
7231.84
7231.12
7230.42
7229.71
7229.03
7228.81
7228.13
7228.27
7227.94
7227.64
7227.95
7227.65
7228.87
7229.08
7229.64
7230.47
7231.15
7231.67
7231.27
7231.42
7231.72
7231.78
7231.51
7231.47
7231.42
7231.15
7230.96
7230.68
7231.09
7231.64
7231.95
7231.02
7231.17
7231.3
7231.5
7231.73
7232.37
7231.94
7231.83
7231.79
7231.81
7231.19
7230.51
7230.2
7229.17
7228.86
7229.71
7230.28
7230.93
7231.55
7231.91
7231.88
7231.87
7231.26
7231.65
7231.56
7231.6
7232.12
7232.91
7234.19
7235.74
7237.7
7239.97
7242.39
7244.93
7247.42
7249.74
7251.91
7253.87
7255.47
7256.75
7257.93
7258.65
7259.33
7259.93
7260.05
7259.34
7259.24
7258.76
7257.79
7257.55
7256.4
7255.07
7253.56
7253.05
7250.64
7247.99
7246.05
7243.52
7242.45
7239.63
7237.37
7235.21
7232.34
7231.73
7229.71
7229.26
7227.76
7228.15
7228.11
7227.9
7228.71
7229.23
7229.22
7230.07
7230.34
7231.05
7230.69
7231.24
7231.46
7231.96
7232.22
7231.47
7231.91
7231.47
7231.46
7231.33
7231.17
7231.03
7230.95
7230.95
7230.37
7230.14
7229.74
7229.73
7229.47
7229.58
7229.29
7228.83
7228.63
7228.67
7228.47
7228.48
7228.18
7228.19
7227.59
7227.41
7227.54
7227.64
7227.87
7228.18
7228.75
7228.87
7229.04
7228.45
7229.09
7229.21
7229.32
7229.84
7230.2
7230.33
7230.32
7230.95
7230.55
7231.23
7230.84
7231.08
7231.11
7231.23
7230.49
7230.62
7230.66
7230.83
7231.07
7230.76
7230.32
7230.02
7229.72
7229.54
7229.03
7228.75
7229.4
7229.73
7230.13
7230.48
7230.84
7230.52
7230.12
7230.45
7230.65
7230.46
7230.93
7230.99
7230.47
7229.86
7228.46
7230.79
7231.45
7232.52
7232.15
7231.55
7230.19
7227.91
7225.67
7223.13
7224.52
7224.35
7224.27
7226.69
7228.54
7230
7230.67
7230.24
7231.8
7231.08
7231.22
7232.42
7232.73
7232.2
7231.75
7232.39
7232.27
7231.51
7232.37
7232.7
7232.21
7232.24
7233.06
7232.35
7232.48
7233.54
7232.95
7233.21
7232.52
7233.2
7232.91
7233.07
7231.99
7231.72
7231.43
7231.04
7232.24
7232.72
7232.96
7232.75
7232.43
7231.95
7231.38
7231.55
7231.04
7230.38
7229.76
7230.42
7229.5
7229.14
7228.25
7228.48
7228.47
7228.1
7229.57
7230.03
7231.98
7232.53
7235.55
7237.4
7239.81
7242.29
7244.95
7245.41
7245.81
7248.38
7250.4
7252.95
7254.59
7254.92
7256.2
7257.35
7257.6
7257.38
7256.07
7256.01
7254.61
7252.81
7250.75
7247.82
7247.21
7244.71
7242.36
7239.91
7237.58
7235.48
7232.71
7232.26
7230.54
7229.88
7228.53
7228.85
7228.76
7229.59
7229.25
7229.94
7230.52
7231.37
7232.03
7231.49
7230.84
7230.2
7229.57
7230.01
7230.54
7230.13
7229.69
7229.43
7229.03
7228.67
7228.73
7229.73
7229.49
7229.95
7229.87
7229.74
7230.03
7230.46
7230.04
7231.02
7231.62
7232.5
7233.75
7235.34
7237.88
7240.17
7242.63
7244.96
7247.32
7247.88
7250.93
7252.91
7254.66
7256.05
7257.23
7257.26
7258.15
7258.42
7258.51
7258.64
7259.12
7259.8
7259.66
7259.63
7258.98
7258.89
7259.53
7259.53
7259.49
7258.78
7258.77
7258.11
7258.12
7257.28
7256.2
7254.81
7253.09
7250.87
7248.39
7246.07
7243.55
7241.33
7239.01
7236.56
7234.67
7233.23
7232.1
7231.32
7230.84
7231.49
7230.48
7231.45
7232.44
7233.55
7235.02
7236.78
7239.22
7241.27
7243.4
7244.88
7244.32
7246.73
7249.25
7251.67
7253.45
7255.13
7256.44
7257.44
7258.23
7258.89
7258.79
7259.37
7259.4
7259.75
7259.98
7259.97
7260.13
7260.16
7260.18
7260.52
7259.97
7260.03
7260.14
7259.61
7259.04
7258.28
7257.35
7255.58
7255.47
7253.89
7253.46
7251.73
7250.86
7249.14
7246.72
7245.56
7242.8
7240.43
7238.37
7237.26
7234.55
7232.82
7230.44
7229.83
7228.69
7227.24
7227.91
7227.68
7227.46
7228.37
7228.77
7228.84
7229.55
7229.93
7229.82
7230.47
7230.6
7230.38
7230.01
7229.47
7229.41
7229.2
7228.52
7228.5
7228.35
7228.27
7227.87
7227.64
7227.52
7227.54
7227.61
7227.39
7228.75
7228.93
7230.03
7230.58
7229.88
7230.69
7231.2
7231.3
7231.4
7231.53
7231.42
7231.41
7231.44
7231.22
7230.87
7230.49
7230.34
7230.77
7230.55
7230.24
7230.59
7231.17
7232.33
7231.45
7230.74
7231.08
7231.67
7231.62
7231.4
7232.11
7233
7234.78
7237.73
7239.85
7240.11
7242.42
7242.11
7243.22
7245.94
7248.27
7248.8
7250.71
7253.05
7253.65
7254.94
7255.82
7256.82
7258.01
7258.74
7259.47
7259.28
7259.65
7260.01
7260.23
7260.23
7260.3
7259.73
7259.28
7258.56
7257.62
7255.81
7255.97
7254.47
7252.96
7250.93
7248.55
7245.93
7243.05
7239.81
7237.41
7235.55
7234.12
7233.17
7232.2
7232.62
7231.87
7232.53
7232.6
7232.71
7232.22
7232.06
7232.02
7231.51
7231.39
7231.01
7232.13
7233.13
7234.23
7235.33
7237.91
7238.29
7238.16
7240.46
7242.41
7242.78
7245
7248.01
7248.72
7248.61
7247.36
7249.75
7251.7
7253.26
7254.4
7254.07
7255.67
7256.89
7257.66
7258.47
7259.05
7259.56
7259.43
7259.85
7259.79
7260.25
7260.2
7260.29
7260.33
7260.52
7260.55
7260.78
7260.95
7261.11
7260.78
7260.9
7260.39
7260.52
7259.96
7259.51
7258.74
7257.61
7256.46
7255.03
7253.76
7251.9
7249.98
7247.56
7244.85
7242.17
7239.7
7239.3
7237.79
7237.94
7238.15
7238.01
7237.23
7237.42
7237.29
7236.47
7235.74
7238.24
7238.97
7241.53
7240.9
7240.49
7242.73
7244.94
7247.38
7249.99
7251.99
7253.66
7255.36
7256.6
7257.56
7258.36
7259.01
7259.56
7260.02
7260.46
7260.8
7261.22
7261.48
7261.85
7262.34
7262.98
7262.98
7262.09
7261.97
7261.46
7261.3
7260.94
7260.96
7260.54
7260.76
7260.23
7260.6
7260.84
7260.34
7260.76
7261
7260.56
7260.79
7260.96
7261.09
7261.24
7261.4
7260.98
7260.77
7260.38
7260.01
7259.09
7259.55
7260
7260.44
7260.41
7260.58
7260.84
7261.18
7261.29
7261.17
7261.28
7261.55
7261.28
7261.05
7260.61
7260.07
7259.38
7258.52
7257.66
7256.62
7256.21
7256.16
7256.33
7256.78
7256.48
7257.05
7256.91
7256.97
7256.76
7256.42
7256.15
7255.84
7255.53
7255.21
7254.48
7253.93
7253.5
7254.18
7254.61
7255.03
7255.02
7256.45
7254.69
7255.28
7255.16
7255.09
7254.72
7254.48
7254.52
7254.74
7256.03
7257.27
7258.21
7259.1
7259.69
7260.25
7260.7
7260.97
7261.03
7261.13
7261.47
7261.56
7261.66
7261.57
7261.95
7261.44
7261.6
7261.81
7261.89
7262.22
7262.01
7262
7262.08
7262.29
7262.28
7262.4
7262.45
7262.39
7262.49
7262.31
7262.19
7261.98
7261.79
7261.66
7261.48
7261.42
7261.45
7261.12
7261.26
7261.12
7261.52
7261.72
7261.74
7261.9
7262.47
7261.76
7261.91
7261.9
7261.9
7261.79
7261.62
7261.47
7261.44
7261.6
7261.51
7261.28
7261.05
7261.26
7260.84
7260.98
7261.12
7261.27
7261.42
7261.55
7261.4
7261.48
7261.49
7261.21
7261.36
7261.15
7260.9
7260.94
7261.1
7261.31
7260.58
7260.35
7260.15
7259.96
7259.47
7259.48
7259.35
7259.65
7259.83
7260.07
7260.88
7260.85
7260.95
7260.88
7260.94
7260.83
7260.71
7260.57
7260.43
7260.32
7260.08
7260.62
7260.61
7261.04
7261.28
7261.5
7261.75
7261.84
7261.82
7262.02
7262.33
7262.41
7262.62
7262.81
7262.76
7262.92
7263.03
7263.22
7263.17
7263.08
7263.33
7263.31
7263.34
7263.28
7263.14
7262.84
7262.75
7262.84
7262.33
7262.47
7262.36
7262.54
7262.67
7262.74
7262.95
7262.85
7262.94
7263.22
7262.73
7262.89
7262.79
7262.62
7262.69
7262.49
7262.25
7261.87
7262.09
7262.28
7262.4
7262.6
7262.77
7262.84
7262.85
7263.07
7263.06
7263.33
7263.52
7263.49
7263.71
7263.56
7263.74
7263.62
7263.54
7263.5
7263.49
7263.48
7263.42
7263.36
7262.33
7262.29
7262.36
7261.93
7261.45
7261.4
7260.81
7260.89
7260.98
7260.97
7261.42
7261.93
7261.88
7261.51
7260.98
7260.46
7260.13
7259.58
7259.55
7259.71
7260.15
7260.62
7260.19
7260.1
7260.26
7260.59
7260.62
7261.01
7261.64
7262.02
7262.71
7263.26
7263.82
7264.24
7264.74
7265.04
7265.56
7265.76
7266.26
7266.4
7266.83
7266.9
7267.25
7267.25
7267.53
7267.53
7267.75
7267.59
7267.98
7267.87
7268.12
7267.91
7268.1
7267.96
7268.2
7268.15
7268.24
7268.49
7268.89
7269.81
7270.68
7272
7273
7273.08
7272.92
7272.79
7272.52
7272.36
7272.21
7272.11
7271.65
7270.89
7270.13
7269.66
7269.36
7268.87
7268.57
7268.37
7268.19
7267.97
7267.62
7267.98
7267.84
7268.01
7268.18
7268.35
7268.51
7268.79
7269.29
7269.35
7270.11
7271.08
7271.28
7271.48
7271.56
7271.56
7271.63
7271.84
7271.67
7271.76
7272.06
7273.17
7273.98
7273.89
7274.11
7273.76
7273.67
7273.47
7273.3
7272.98
7272.09
7273.44
7272.79
7272.51
7271.5
7270.66
7269.94
7269.51
7269
7268.68
7268.46
7268.28
7268.06
7267.66
7267.92
7267.56
7267.65
7267.68
7267.8
7267.95
7267.97
7267.98
7268.03
7268
7267.94
7267.77
7267.82
7267.86
7267.97
7268.16
7268.39
7268.39
7268.32
7268.11
7267.82
7268.11
7268.26
7268.3
7268.31
7268.28
7268.2
7268.14
7268.01
7267.88
7267.78
7267.64
7267.84
7267.96
7268.1
7268.26
7268.38
7268.45
7268.51
7268.52
7268.52
7268.48
7268.36
7268.53
7268.65
7268.69
7268.71
7268.71
7268.65
7268.6
7268.47
7268.35
7268.22
7268.02
7267.87
7267.74
7267.87
7267.86
7268.05
7268.22
7268.34
7268.9
7268.49
7269
7269.2
7270.46
7270.69
7270.73
7270.54
7270.18
7270.5
7270.71
7270.72
7271.99
7272.07
7273.08
7273.03
7273.13
7274.34
7274.93
7274.97
7274.89
7274.75
7274.84
7274.81
7274.56
7274.12
7274.05
7273.59
7274.03
7274.1
7272.71
7271.44
7270.62
7269.72
7269.9
7270.05
7270.79
7271.63
7272.73
7272.65
7274.06
7274.94
7274.98
7274.97
7275.72
7275.65
7275.07
7274
7272.9
7271.64
7270.65
7269.9
7269.22
7269.59
7269.51
7269.19
7269.09
7268.75
7268.48
7268.3
7268.07
7267.62
7267.93
7267.5
7267.53
7267.51
7267.55
7267.73
7267.67
7267.81
7267.88
7267.9
7267.88
7267.84
7267.77
7267.37
7267.31
7267.11
7266.81
7266.51
7266.05
7265.96
7265.95
7265.64
7265.72
7265.93
7266.24
7266.28
7266.25
7265.99
7265.63
7266.07
7266.46
7266.86
7267.14
7267.45
7267.45
7267.48
7267.58
7267.71
7267.78
7267.82
7267.86
7267.76
7267.83
7267.7
7267.65
7267.62
7267.75
7267.77
7267.97
7268.12
7268.3
7268.57
7268.94
7269.64
7270.42
7271.28
7272.37
7273.41
7274.3
7275.11
7275.03
7274.99
7274.81
7274.04
7275.38
7276
7276.09
7275.94
7276.68
7276.84
7276.99
7276.08
7275.03
7273.56
7273.25
7273.61
7274.8
7274.9
7275.81
7277.03
7277.65
7278.42
7279.02
7279.13
7279.16
7279.35
7278.9
7278.23
7277.93
7278.35
7278.82
7278
7277.39
7277.24
7278.02
7278.11
7278.22
7278.65
7279.46
7279.43
7279.42
7280.24
7279.93
7279.75
7279.29
7278.8
7277.96
7276.93
7276.63
7276.94
7277.87
7277.87
7278.57
7279.18
7279.7
7280.02
7280.39
7280.39
7280.3
7281.01
7280.96
7280.67
7280.35
7279.6
7279.82
7279.8
7280.25
7280.63
7280.68
7281.02
7281.59
7281.53
7281.54
7282.22
7282.38
7281.5
7281.56
7281.58
7281.69
7282.23
7282.96
7282.82
7283.08
7283.26
7282.91
7282.08
7281.28
7281.41
7281.29
7280.72
7280.75
7279.94
7279.99
7279.16
7278.71
7277.52
7277.06
7276.78
7275.41
7274.09
7273.64
7273.34
7271.52
7270.75
7269.85
7270.18
7269.44
7269.6
7269.02
7268.79
7268.43
7268.61
7268.24
7268
7268.17
7267.7
7267.58
7267.53
7267.44
7267.28
7267.5
7267.44
7267.61
7267.62
7267.4
7267.48
7267.45
7267.45
7267.5
7267.46
7267.35
7267.2
7266.98
7266.7
7266.4
7266.06
7265.51
7265.23
7264.74
7264.26
7263.68
7263.19
7262.52
7262.46
7262.8
7263.23
7263.75
7263.89
7263.9
7263.42
7263.01
7263.81
7264.3
7264.89
7265.17
7265.39
7265.5
7265.77
7266.21
7266.5
7266.8
7267.01
7267.18
7267.3
7267.41
7267.4
7267.5
7267.41
7267.53
7267.37
7267.46
7267.36
7267.64
7267.68
7267.94
7268.12
7268.36
7268.7
7269.19
7269.9
7270.74
7271.7
7272.71
7273.8
7274.77
7275.37
7276.09
7276.33
7276.56
7276.63
7276.68
7276.61
7276.64
7276.21
7277.35
7277.77
7278.21
7278.79
7278.6
7279.31
7279.57
7279.66
7280.02
7280.77
7280.78
7281.38
7282.14
7282.19
7282.87
7283.53
7283.7
7284.33
7284.3
7284.14
7283.83
7283.78
7283.85
7282.91
7282.45
7281.7
7281.62
7280.89
7280.31
7280.35
7280.1
7279.31
7278.74
7278.61
7277.34
7277.01
7276.77
7275.53
7275.3
7273.96
7273.8
7272.05
7271.91
7270.64
7270.85
7269.92
7270
7269.53
7269.77
7269.18
7268.81
7268.93
7268.41
7268.49
7268.22
7268.37
7267.9
7267.57
7267.8
7267.41
7267.34
7267.21
7267.1
7267.33
7267.16
7267.35
7267.33
7267.36
7267.36
7267.23
7267.23
7267.14
7267
7266.81
7266.57
7266.24
7265.91
7265.48
7265.08
7264.56
7264.05
7263.47
7262.96
7262.49
7261.85
7261.49
7260.9
7260.47
7260
7260.21
7259.78
7259.24
7258.85
7258.11
7257.85
7258.21
7258.84
7259.38
7258.82
7258.06
7258.02
7258.37
7258.97
7259.32
7259.36
7259.73
7260.35
7260.64
7261.2
7261.67
7262.26
7262.73
7263.26
7263.73
7264.24
7264.59
7265.1
7265.4
7265.89
7266.11
7266.52
7266.66
7266.97
7267.02
7267.26
7267.23
7267.4
7267.26
7267.46
7267.42
7267.57
7267.54
7267.71
7267.82
7268.03
7268.16
7268.42
7268.78
7269.33
7270.15
7271.08
7272.15
7273.19
7274.16
7275.02
7275.57
7276.02
7276.08
7276.08
7276.03
7275.99
7275.92
7275.93
7275.54
7275.59
7275.68
7275.77
7275.72
7276.47
7276.69
7276.86
7277.05
7277.17
7277.33
7277.18
7277.17
7278.11
7278.62
7278.42
7279.16
7279.55
7279.81
7280.2
7279.95
7280.99
7281.27
7281.56
7282.61
7282.7
7283.65
7283.56
7284.26
7284.35
7284.84
7284.83
7284.92
7284.57
7284.47
7283.86
7283.8
7283.05
7282.65
7282
7281.97
7281.08
7281.15
7280.34
7280.28
7279.92
7279.82
7278.85
7278.86
7277.75
7277.13
7276.71
7275.19
7275.18
7273.83
7272.09
7271.85
7270.87
7270.93
7270.06
7269.63
7269.61
7269.3
7269.43
7268.74
7268.52
7268.2
7268.15
7267.85
7268.04
7267.48
7267.37
7267.2
7267.02
7267.06
7267.05
7267.15
7267.1
7267.31
7267.21
7267.16
7267.14
7267.08
7266.95
7266.79
7266.56
7266.26
7265.88
7265.5
7265.01
7264.55
7263.95
7263.53
7262.89
7262.37
7262.01
7261.5
7261.18
7260.72
7260.32
7260.35
7260.72
7261.19
7261.52
7261.63
7261.9
7262.39
7262.96
7263.28
7263.17
7262.53
7262.46
7262.9
7263.5
7263.97
7264.06
7263.59
7263.38
7263.39
7262.52
7262.52
7262.5
7262
7261.33
7261.38
7261.08
7261.2
7260.83
7260.96
7260.9
7261.17
7261.29
7261.19
7261.36
7261.49
7261.58
7261.76
7261.67
7261.91
7261.95
7262.21
7262.45
7262.65
7262.29
7262.33
7262.62
7262.71
7262.65
7262.86
7263.11
7263.37
7263.18
7263.58
7263.78
7263.75
7264.05
7264
7263.96
7264.27
7264.17
7264.31
7264.36
7264.38
7264.41
7264.42
7264.29
7264.27
7264.3
7264.37
7264.64
7264.82
7264.99
7265.09
7265.15
7265.03
7265.11
7265
7264.16
7264.18
7264.72
7264.9
7264.84
7264.62
7264.24
7264.72
7265.1
7265.39
7265.1
7265.39
7265.68
7265.96
7265.97
7266.02
7266.5
7266.49
7266.85
7266.93
7266.86
7266.68
7266.48
7266.76
7267.08
7267.38
7267.59
7267.83
7267.66
7267.32
7267.03
7267.3
7267.52
7267.86
7268.06
7268.32
7268.09
7267.71
7267.76
7267.8
7268.13
7268.28
7268.59
7268.58
7268.59
7268.48
7268.76
7268.68
7268.66
7268.83
7268.89
7268.91
7268.93
7268.89
7268.85
7268.73
7268.61
7268.48
7268.4
7268.32
7268.1
7268
7267.88
7267.76
7268.06
7268
7268.15
7268.19
7268.34
7269.03
7268.98
7269.21
7269.16
7269.02
7268.84
7268.85
7268.94
7268.18
7268
7268.26
7267.79
7267.62
7267.58
7267.71
7267.8
7267.91
7267.9
7267.83
7267.99
7268.02
7267.54
7267.56
7268.14
7268.08
7268.21
7269.28
7269.12
7269.48
7269.3
7269.67
7270.07
7271.1
7271.32
7272.22
7272.95
7274.05
7273.95
7273.85
7275.06
7275.47
7275.57
7275.64
7275.72
7275.53
7275.35
7275.2
7275.32
7275.83
7275.91
7276.01
7276.34
7276.58
7276.51
7276.79
7276.92
7277.04
7277.95
7278.46
7278.3
7279.05
7279.34
7279.29
7279.46
7279.73
7280.73
7281.47
7281.82
7281.89
7281.86
7283.1
7283.14
7284.06
7284.11
7283.72
7284.64
7284.76
7284.85
7285.2
7285.15
7285.15
7285.11
7284.94
7284.75
7284.91
7284.99
7284.99
7285
7285.08
7285.2
7284.99
7284.83
7284.81
7284.6
7284.74
7284.37
7283.82
7283.76
7283.06
7282.64
7282.71
7281.99
7282.05
7281.59
7281.41
7280.56
7280.69
7279.76
7279.52
7279
7278.86
7277.69
7276.93
7276.67
7275.43
7275.3
7273.59
7273.53
7272.24
7272.12
7270.86
7270.26
7270.52
7269.94
7270.15
7269.36
7269.06
7268.51
7268.75
7268.71
7268.11
7267.92
7267.61
7267.2
7267.49
7267.07
7267.02
7267.07
7267.03
7267.09
7267.07
7267.12
7267.11
7267.04
7266.92
7266.75
7266.51
7266.21
7265.79
7265.43
7264.97
7264.51
7264.12
7264.01
7263.74
7263.77
7262.9
7262.98
7262.92
7262.34
7262.03
7261.48
7261.55
7261.42
7261.07
7260.86
7261.32
7261.52
7261.31
7261.44
7261.55
7261.54
7261.65
7261.56
7261.21
7261.45
7261.32
7261.5
7261.35
7261.51
7261.85
7261.8
7262.15
7261.79
7261.86
7261.84
7261.77
7261.83
7261.77
7261.62
7261.73
7261.68
7261.59
7261.68
7261.96
7262.14
7262.17
7262.32
7262.28
7262.66
7262.1
7262.13
7262.24
7262.6
7262.98
7263.31
7263.56
7263.66
7263.99
7263.99
7264.33
7264.23
7264.61
7264.5
7265.05
7265.14
7265.21
7265.32
7265.43
7265.54
7265.6
7265.38
7265.37
7265.77
7266.18
7266.56
7266.96
7267.25
7267.53
7267.79
7267.96
7268.11
7268.16
7268.38
7268.38
7268.59
7268.49
7268.65
7268.52
7268.61
7268.26
7268.36
7268.09
7268.14
7267.86
7268.01
7268.03
7268.2
7268.81
7269.56
7270.32
7271.53
7272.47
7273.3
7273.51
7273.19
7272.92
7272.33
7271.29
7270.22
7270.07
7271.05
7271.67
7272.04
7273.03
7274.11
7274.89
7275.57
7275.96
7276.49
7277.07
7277.43
7277.78
7278.33
7278.63
7278.86
7279.25
7279.64
7280.13
7280.23
7280.46
7281.12
7281.29
7281.59
7282.89
7283.37
7283.64
7284.38
7284.39
7284.01
7284.9
7284.91
7285.24
7285.17
7285.41
7285.32
7285.27
7285.34
7285.23
7284.99
7284.83
7284.63
7284.63
7284.55
7284.68
7284.57
7284.34
7284.34
7283.72
7283.74
7283.04
7283.1
7282.55
7282.54
7282.21
7282.33
7281.54
7281.67
7281.57
7280.55
7280.29
7280.52
7279.68
7279.74
7278.54
7278.38
7278
7277.63
7276.26
7275.23
7275.02
7273.44
7272.27
7272.18
7272.05
7270.91
7270.61
7269.89
7270.1
7270.2
7269.44
7269.22
7268.56
7268.58
7268.74
7268.11
7267.91
7267.66
7267.2
7267.45
7267.43
7267.02
7267.09
7267.04
7267.08
7267.07
7267.1
7267.06
7266.99
7266.84
7266.64
7266.38
7266.01
7265.75
7265.12
7265.09
7264.61
7264.53
7264.38
7264.31
7264.29
7263.7
7262.87
7262.89
7262.34
7262.1
7262
7262.51
7262.76
7262.95
7263.18
7262.51
7262.46
7262.58
7262.86
7262.21
7262.12
7262.09
7262.1
7262.51
7262.7
7262.76
7263.13
7263.42
7263.69
7263.94
7264.24
7264.27
7264.65
7264.57
7265
7265.26
7265.3
7265.74
7265.72
7265.96
7266.09
7266.2
7266.23
7266.23
7266.15
7266.11
7266.01
7265.87
7265.77
7265.82
7266.21
7266.37
7266.65
7266.77
7266.84
7266.83
7266.75
7267.06
7267.11
7267.11
7267.52
7267.3
7267.3
7267.52
7267.88
7268.17
7268.31
7268.5
7268.64
7268.7
7268.72
7268.78
7268.75
7268.78
7268.67
7268.59
7268.5
7268.28
7268.16
7268.08
7268.24
7268.16
7268.1
7268.21
7268.45
7268.71
7268.51
7268.71
7268.47
7267.96
7268.14
7268.02
7267.82
7267.98
7268.08
7268.01
7267.84
7268.08
7268.13
7267.84
7268.14
7268.33
7268.48
7268.94
7269.32
7269.59
7270.41
7270.58
7271.45
7272.26
7272.95
7273.93
7273.79
7274.97
7275.3
7275.76
7275.91
7276.02
7275.97
7275.66
7276.37
7276.27
7276.04
7276.64
7276.52
7276.39
7277.13
7277.22
7277.51
7277.74
7278.21
7278.15
7278.91
7279.21
7279.06
7279.99
7279.98
7280.82
7280.81
7280.87
7282.06
7282.5
7283.26
7283.38
7284.13
7284.17
7284
7284.19
7284.93
7285.09
7285.41
7285.28
7285.1
7285.61
7285.54
7285.42
7285.3
7285.6
7285.32
7285.26
7285.03
7284.86
7284.64
7284.45
7284.39
7284.42
7284.28
7284.5
7284.21
7284.05
7284.03
7283.61
7283.38
7283.51
7283.02
7282.93
7283.01
7282.47
7282.25
7282.17
7281.77
7281.44
7281.39
7281.23
7280.25
7279.62
7279.29
7279.5
7278.09
7278.02
7277.42
7277.27
7275.96
7274.89
7274.88
7273.36
7273.38
7272.17
7272.16
7271.16
7270.81
7270.94
7270.21
7270.39
7269.63
7269.28
7269.26
7268.57
7268.87
7268.14
7267.89
7267.66
7267.2
7267.17
7267.48
7267.05
7267.12
7267.1
7267.14
7267.12
7267.15
7267.09
7267.01
7266.85
7266.62
7266.34
7266.03
7265.42
7265.48
7265.41
7264.89
7264.8
7264.82
7264.93
7265.14
7264.48
7264.33
7263.59
7263.8
7263.14
7263.36
7263.66
7263.1
7262.89
7263.12
7263.44
7263.69
7263.97
7264.21
7264.51
7264.56
7264.96
7264.8
7265.41
7265.57
7265.79
7266.18
7266.56
7266.76
7266.89
7266.98
7267.06
7267.12
7267.7
7267.63
7267.67
7267.52
7267.94
7267.95
7267.97
7268.28
7268.43
7268.46
7268.68
7268.94
7268.84
7268.85
7269.03
7268.85
7268.93
7268.98
7269.04
7268.99
7268.98
7268.89
7268.8
7268.67
7268.84
7268.99
7269.1
7269.2
7269.2
7269.26
7269.21
7269.15
7269.16
7269.22
7269.31
7269.3
7269.33
7269.22
7269.15
7269.05
7268.72
7268.82
7268.73
7268.9
7268.87
7268.56
7268.39
7268.47
7268.58
7268.04
7268.21
7267.75
7267.85
7268.14
7268.28
7268.51
7268.4
7268.47
7268.78
7268.89
7268.78
7268.68
7269.01
7269.1
7269.15
7269.13
7268.76
7268.78
7268.48
7268.12
7268.23
7267.87
7268
7268.05
7268
7268.16
7268.27
7268.38
7268.33
7268.07
7267.8
7267.62
7267.5
7267.41
7267.4
7267.46
7267.49
7267.33
7267.37
7267.34
7267.35
7267.41
7267.58
7267.77
7268.06