/*--------------------------------*- C++ -*----------------------------------*\
| =========                 |                                                 |
| \\      /  F ield         | OpenFOAM: The Open Source CFD Toolbox           |
|  \\    /   O peration     | Version:  5.0                                   |
|   \\  /    A nd           | Web:      www.OpenFOAM.org                      |
|    \\/     M anipulation  |                                                 |
\*---------------------------------------------------------------------------*/
FoamFile
{
    version     2.0;
    format      ascii;
    class       surfaceScalarField;
    location    "60";
    object      phiHyper;
}
// * * * * * * * * * * * * * * * * * * * * * * * * * * * * * * * * * * * * * //

dimensions      [0 3 -1 0 0 0 0];

internalField   nonuniform List<scalar> 
101438
(
-6.25761e-09
-1.16981e-08
4.53934e-10
-1.4981e-09
1.72252e-09
-6.36253e-09
-1.19543e-10
3.42732e-09
-6.80072e-09
-7.77997e-11
1.95307e-09
2.84941e-10
-1.92852e-09
-3.94512e-09
-5.73677e-09
-4.76604e-09
-9.72262e-09
-5.16405e-09
5.89272e-10
-1.4001e-08
-1.11671e-08
6.17304e-10
-1.0996e-08
-1.40133e-08
-6.89796e-10
-6.69061e-09
-1.02242e-08
-4.43697e-10
-2.064e-09
1.31983e-09
-5.57423e-09
-3.72194e-10
3.837e-09
-5.34591e-09
-3.12369e-09
2.56862e-09
8.11124e-10
-2.45499e-09
1.21015e-08
-6.06701e-09
1.7087e-10
-5.39423e-09
7.80308e-09
1.00153e-10
4.12048e-09
1.16633e-08
3.72159e-10
-3.94746e-09
7.21405e-09
1.28831e-11
4.34296e-09
1.55713e-10
-3.93391e-09
5.3792e-11
-2.03837e-09
-3.09892e-09
-1.99634e-09
-3.62289e-10
-3.03148e-09
-6.28711e-09
-8.38602e-10
-6.05278e-09
-2.63047e-09
-1.77679e-09
-2.81314e-09
-1.98542e-09
-6.26223e-09
-1.07808e-09
3.99466e-10
-1.14314e-08
-6.36349e-09
3.65636e-10
-1.34078e-08
-1.13592e-08
-6.77794e-10
-1.05173e-08
-1.23541e-08
-7.60594e-10
-6.00509e-09
-8.80663e-09
-1.27982e-09
-1.89216e-09
1.42621e-09
-4.71292e-09
-8.26193e-10
4.22989e-09
-5.24856e-09
-3.41993e-09
2.54644e-09
3.10097e-09
-2.79077e-09
-1.66933e-09
1.6575e-09
-1.08667e-11
2.17438e-09
-5.6331e-09
-6.91294e-11
1.85853e-09
-9.62049e-11
-2.1389e-09
6.49638e-09
-2.32391e-09
-2.14133e-09
-2.12734e-09
1.32806e-08
-6.1977e-10
-5.99358e-09
8.05823e-09
7.03159e-10
4.61934e-09
1.29717e-08
-2.93755e-10
-4.24757e-09
7.65055e-09
3.06127e-10
5.02786e-09
-7.73634e-10
-4.30382e-09
-4.16802e-09
-3.0048e-09
-2.88837e-09
6.12323e-10
-5.22832e-09
-7.64208e-09
4.27669e-09
-2.88102e-09
-2.18444e-09
-5.13165e-09
-1.89876e-09
5.88145e-10
-7.40051e-09
-3.26078e-10
2.72894e-09
6.48258e-10
-2.39699e-09
-3.74329e-09
-1.90846e-09
-1.02153e-10
1.06695e-08
-3.15016e-09
-6.76893e-09
-4.72244e-10
1.01757e-08
-6.6623e-09
-3.14332e-09
-1.63115e-09
5.84589e-09
-3.03785e-09
-1.64912e-09
-6.59222e-09
-1.58131e-09
1.78861e-10
-1.00329e-08
-7.08659e-09
-8.31936e-10
-1.01764e-08
-9.25427e-09
-2.95635e-09
-7.43233e-09
-8.96377e-09
-2.5869e-09
-5.21487e-09
-5.06594e-09
-1.86445e-09
-1.38457e-09
1.58e-09
-4.95815e-09
-4.52153e-10
3.6872e-09
-4.32921e-09
-2.7034e-09
1.96083e-09
2.96484e-09
-2.94622e-09
-1.51982e-09
1.4753e-09
-4.10545e-10
2.32542e-09
-4.9836e-09
-3.48415e-10
1.48677e-09
1.59601e-10
-1.99199e-09
6.72737e-09
-3.82728e-09
-3.2933e-10
-2.41116e-09
2.10866e-09
2.22568e-09
3.28219e-09
-3.47624e-09
1.61375e-10
6.60341e-09
-9.51186e-09
9.74228e-10
5.21642e-09
1.03178e-08
-3.48768e-10
-3.98542e-09
4.48318e-09
2.80795e-09
3.72989e-09
9.89882e-09
-2.9453e-09
-2.76409e-09
2.61504e-09
3.42187e-09
-5.10248e-09
6.42993e-10
-1.10657e-08
-1.32781e-08
1.35812e-09
-1.65737e-08
-2.66065e-09
-1.67287e-08
-4.25976e-09
-3.34021e-10
-1.64764e-08
-1.49785e-10
-2.03407e-10
-5.89458e-11
3.97852e-09
1.89576e-09
3.54235e-10
9.69475e-09
-9.73915e-09
-1.52054e-08
-5.1229e-10
-1.70655e-08
-1.6717e-08
1.89137e-08
1.75562e-10
-8.49902e-10
-1.85366e-08
-1.77591e-08
2.01568e-08
-1.20047e-09
-1.30503e-08
-1.76689e-08
1.91554e-08
1.19143e-08
-5.96446e-10
-3.61714e-09
-1.09335e-08
-1.89385e-09
-6.11534e-09
-6.51432e-09
-4.12828e-09
4.80042e-09
-3.27291e-09
-4.35994e-09
-3.68187e-09
-2.0675e-09
3.42699e-10
-8.40258e-09
3.21395e-09
-6.22105e-10
6.96665e-10
-1.12344e-09
-4.68008e-09
-3.29567e-09
-3.14581e-10
-6.65923e-09
1.21802e-08
-4.50963e-09
-1.05053e-09
-6.08485e-09
1.12365e-08
-4.41568e-09
-1.43371e-09
6.6345e-09
-2.16343e-09
-4.08784e-09
-5.93467e-09
-2.79601e-10
-2.30604e-09
-7.78807e-09
-5.84074e-09
-1.56012e-09
-1.48947e-09
2.974e-10
-3.45439e-09
-3.14162e-09
-1.53981e-09
1.5933e-09
1.00854e-11
-1.55306e-09
-8.35251e-10
1.28648e-09
-2.06929e-09
7.82531e-11
3.86431e-09
-3.69778e-09
-3.16104e-09
2.15922e-09
3.20911e-09
-3.12427e-09
-3.86396e-09
2.69637e-09
-5.13899e-09
-4.86565e-09
-1.00246e-09
-1.41871e-08
1.6914e-08
1.3821e-08
-1.28491e-08
-9.53876e-10
-1.84078e-08
1.50526e-08
1.93514e-08
-1.60448e-08
-1.18338e-09
-1.95169e-08
2.04217e-08
1.62039e-08
-1.68792e-08
-1.23571e-09
-1.67159e-08
1.43476e-08
1.76466e-08
-1.5226e-08
5.66476e-10
-1.25269e-08
-1.3211e-08
1.34946e-08
1.04412e-08
7.23209e-09
6.79423e-09
-7.67306e-09
-5.78682e-09
7.07731e-09
8.63827e-09
-7.09054e-09
-1.39303e-09
4.61678e-09
7.76929e-09
-5.27243e-09
-3.63727e-11
1.48905e-09
-1.62552e-09
1.96162e-10
4.55708e-09
5.50898e-09
-2.69536e-09
-1.67333e-09
5.3104e-09
8.26204e-09
-4.37231e-09
-3.69117e-09
4.9349e-09
2.3817e-10
6.31332e-09
2.52176e-09
4.36187e-09
-2.75325e-09
-3.8759e-09
-7.18151e-09
5.65607e-10
-7.75385e-09
-8.02384e-09
9.5411e-10
-6.34882e-09
-8.57381e-09
1.05347e-09
-3.75205e-09
-6.21852e-09
3.48834e-10
1.29235e-09
-1.23588e-09
-4.10805e-09
2.99519e-10
-2.68595e-09
-1.50504e-09
-3.90586e-09
-1.931e-09
1.91504e-09
2.47671e-09
-1.35843e-09
-3.09742e-09
-1.92671e-09
1.39485e-09
-1.13106e-09
2.81953e-10
2.94489e-10
-1.89218e-09
-1.68752e-09
-1.89809e-10
-2.41518e-09
-3.75971e-09
-1.80754e-09
-1.91917e-09
-2.54793e-09
-3.40965e-09
9.88268e-11
-1.85227e-09
3.35555e-09
-2.16881e-09
-3.9586e-09
-3.38787e-09
6.10567e-09
-3.72647e-09
-3.2363e-09
-1.04674e-09
-1.17966e-09
-2.43305e-09
-3.25539e-09
-2.09584e-09
1.71674e-10
-8.0856e-10
-2.0206e-09
-2.09847e-09
-4.61095e-11
-8.51956e-10
1.06475e-09
-2.1651e-09
-6.83215e-11
3.45986e-09
-3.42116e-09
-2.85628e-09
1.96558e-09
3.46934e-09
-2.64253e-09
-4.17919e-09
-4.7069e-10
-1.04464e-09
1.31463e-09
-4.14696e-09
-3.02244e-10
2.90986e-09
-3.47493e-09
-2.08884e-09
1.60926e-09
2.35556e-09
-2.4603e-09
-1.21767e-09
1.29113e-09
-4.21288e-10
1.81517e-09
-4.02657e-09
-2.08475e-10
1.2022e-09
-4.28148e-12
-1.87303e-09
6.24421e-09
-3.5584e-09
-4.41835e-11
-2.64592e-09
4.86271e-11
2.01987e-09
2.428e-09
-5.71466e-09
1.44035e-09
1.89493e-09
6.18097e-09
-1.88812e-09
-2.1942e-09
-1.32924e-09
-5.47788e-09
5.4198e-09
-3.44019e-09
-1.27272e-09
-2.03616e-09
2.07313e-09
8.86536e-09
-8.16193e-09
-1.07502e-10
-1.31825e-10
1.30079e-08
2.53765e-09
-1.09207e-08
-7.2898e-09
-8.63089e-09
5.36495e-10
-6.63273e-09
4.21544e-10
-4.20173e-09
2.55196e-10
-1.31114e-09
-4.38547e-09
1.36434e-10
-4.36703e-09
-2.58063e-09
2.53914e-09
2.50198e-09
-1.60721e-09
-2.76116e-09
-2.50065e-09
1.32057e-09
-1.61187e-09
2.12669e-10
5.72861e-10
-2.46336e-09
-1.60694e-09
4.81804e-09
7.53562e-11
-3.46721e-09
6.82771e-09
-2.86296e-09
-5.34719e-10
-3.18624e-09
6.38312e-09
-2.58675e-09
-1.01262e-09
-1.46911e-09
-2.01156e-09
-3.5409e-09
1.30227e-10
-8.3825e-10
-3.4289e-09
-3.17568e-09
2.89397e-10
2.77432e-09
-1.63038e-09
-2.72484e-09
-2.52625e-09
3.45256e-09
-2.05748e-09
-1.53576e-09
-1.35628e-10
-1.9624e-09
-2.24077e-09
-1.94508e-11
-7.21229e-10
9.95568e-10
-2.00487e-09
-2.31892e-10
2.90693e-09
-2.85873e-09
1.539e-09
-2.30846e-09
2.91833e-09
-2.43701e-09
-3.58205e-09
-5.02909e-10
-8.70544e-10
1.00665e-09
-3.90179e-10
-3.328e-09
2.32557e-09
-2.84399e-09
-1.62107e-09
1.26894e-09
1.91151e-09
-2.05422e-09
-9.48565e-10
1.05582e-09
-2.84588e-10
1.5338e-09
-3.33498e-09
-1.19049e-10
9.71659e-10
1.81915e-10
-1.61888e-09
5.46337e-09
-2.83447e-09
-4.9916e-11
-2.39707e-09
-1.37476e-10
1.83396e-09
3.19186e-09
-5.01257e-09
4.72622e-11
1.63596e-09
-3.66332e-10
-2.20066e-09
3.35694e-09
-1.54549e-09
-9.00325e-10
-1.27745e-09
3.30798e-09
5.11621e-09
-1.94395e-09
-3.12333e-09
2.57491e-09
2.85308e-10
1.77272e-09
2.47822e-09
-4.51745e-09
-2.55009e-10
-6.12532e-09
-4.52436e-09
-9.58338e-10
3.34988e-10
-2.5077e-09
-1.31208e-09
-2.64056e-09
-2.57984e-09
-1.57011e-09
-3.18817e-09
5.68939e-09
-2.25642e-09
-2.96945e-09
-3.04339e-09
-4.41942e-09
-6.35133e-11
-2.26558e-09
-3.26153e-10
-3.43492e-09
6.73072e-10
-4.97094e-11
-9.69573e-10
-1.91935e-09
7.04675e-10
-1.06105e-09
-1.73168e-09
1.86264e-09
4.69241e-09
-3.23035e-09
-2.61997e-09
2.03414e-09
-1.16577e-09
9.93363e-10
9.27262e-13
2.65135e-09
9.37545e-09
-7.77047e-09
-3.47866e-10
-4.11733e-10
-1.2787e-08
4.11489e-10
7.87187e-09
1.42908e-08
-7.64173e-09
7.97889e-09
-1.03933e-08
-1.09082e-08
1.06927e-09
-6.78772e-09
-8.05186e-09
1.61953e-09
-2.03646e-09
2.2495e-10
-6.08691e-09
-3.44452e-09
-1.29318e-09
2.0268e-09
-1.61786e-09
-2.04995e-09
-1.80346e-09
1.04737e-09
4.75519e-10
-7.89223e-10
7.9701e-11
-9.49777e-10
-1.31287e-09
-2.69892e-10
3.56922e-09
-9.0547e-10
-2.31409e-09
-1.16034e-09
3.30632e-09
-1.60225e-09
-8.13584e-10
-2.47114e-09
2.09967e-09
-1.12836e-09
3.39512e-10
-1.78922e-09
4.53821e-09
-2.70299e-09
-2.51709e-09
-1.98661e-09
2.33316e-09
-2.17921e-09
4.34596e-11
-1.01514e-09
2.81175e-09
-2.06315e-09
-1.72006e-09
-1.63696e-09
2.10174e-09
-1.32395e-09
-1.55975e-10
-1.67628e-09
2.30684e-09
-2.1981e-09
-6.9443e-11
-1.12939e-09
1.69839e-09
-2.10868e-09
-1.36639e-10
-3.27096e-10
7.15259e-10
-1.38627e-09
-1.3129e-10
1.81231e-09
-1.73649e-09
-1.22058e-09
8.17645e-10
2.25707e-09
2.13728e-09
-1.86679e-09
2.2963e-09
4.70818e-10
-1.67911e-09
1.16905e-09
-8.34848e-10
2.45509e-09
-2.1827e-09
1.47482e-09
-1.40474e-10
1.9525e-09
-1.75737e-10
1.75816e-09
5.5292e-11
-8.46726e-10
9.50574e-10
1.18543e-10
2.46721e-09
1.83098e-09
2.34385e-09
-1.65091e-09
-1.37312e-09
8.2696e-10
-2.85625e-10
2.58612e-09
2.67868e-09
1.9392e-09
-1.59311e-09
3.06699e-09
-7.36202e-10
1.03271e-09
2.56747e-10
1.38598e-09
1.78082e-10
1.21091e-09
1.18115e-09
1.21565e-09
1.36591e-09
-1.49061e-10
-1.10911e-09
-1.09165e-09
1.85794e-10
5.59589e-09
-5.43539e-09
-5.81066e-09
6.25424e-09
-1.43028e-09
1.36977e-08
-9.08383e-09
-9.10817e-09
1.14022e-10
-6.88802e-09
1.21778e-08
-9.11502e-09
-1.71573e-09
-5.71276e-09
6.63131e-11
-3.71479e-09
-1.02977e-10
2.78054e-10
-4.24806e-10
-2.24758e-09
-1.32041e-09
-3.98247e-11
-3.02564e-09
-1.69393e-09
5.03751e-09
-3.60151e-10
-2.50345e-09
4.3152e-09
-1.49138e-09
-5.25468e-10
-9.03513e-10
-1.63413e-09
-1.35742e-09
-1.80173e-10
-1.16709e-09
-5.69898e-10
-1.09941e-09
-1.75124e-09
-1.23298e-09
7.21535e-11
-7.33018e-10
-1.49723e-09
-1.78045e-09
-1.5343e-10
-1.26644e-09
-2.06961e-09
-2.69863e-10
-8.72619e-10
-1.66665e-09
-1.13469e-10
-3.66367e-10
5.29156e-10
-8.9426e-10
-1.41155e-10
1.37066e-09
-1.42272e-09
6.43549e-10
-9.57865e-10
1.59208e-09
-1.42876e-09
-1.45055e-09
2.08241e-09
-2.60379e-10
-3.29997e-10
3.83152e-10
-1.84e-10
-1.3197e-09
7.77598e-10
-1.40967e-09
-7.31216e-11
3.75191e-10
1.82328e-09
7.86304e-11
-7.41162e-10
1.26926e-09
3.16271e-10
-2.45606e-10
4.83337e-10
-6.82428e-10
2.12881e-09
1.12276e-09
-1.2999e-09
1.88179e-09
-1.65553e-10
2.5921e-09
-2.5217e-10
-5.86572e-10
8.10648e-10
-3.60669e-10
2.72868e-09
1.87229e-09
-1.29948e-09
9.69421e-10
1.60923e-09
-1.7703e-09
-6.77334e-10
8.61278e-10
-1.95787e-10
1.15422e-09
-2.53235e-09
-2.61123e-12
7.03405e-10
8.04447e-11
-1.39994e-09
4.43745e-09
-2.3128e-09
3.99637e-11
-2.08417e-09
5.08193e-11
1.43309e-09
2.80982e-09
-4.39335e-09
2.04491e-10
1.42984e-09
-8.52732e-11
-2.1674e-09
2.79501e-09
-1.32721e-09
-5.55413e-10
-9.97671e-10
4.88977e-10
8.07805e-10
2.4938e-09
-2.98243e-09
7.72695e-11
-3.20578e-09
-7.68736e-10
-1.07741e-09
-2.60164e-09
-2.03443e-09
1.52361e-09
-5.69644e-10
-2.27612e-09
2.44725e-10
-1.63177e-09
2.73169e-10
-1.9157e-09
-2.49031e-09
5.17782e-10
1.8818e-09
-2.70922e-09
-1.47933e-09
3.90999e-10
-2.10625e-09
-2.41633e-09
-1.89402e-09
-8.76125e-10
-1.25546e-09
-2.79973e-09
-1.60456e-09
6.37316e-10
1.87295e-09
2.11157e-09
-1.57697e-09
-1.26578e-09
-2.06856e-09
-1.82131e-09
7.10491e-10
4.93581e-10
-8.92351e-10
-1.4921e-09
6.95805e-11
-1.36588e-09
-6.15265e-10
-2.88517e-09
-1.19954e-09
1.82649e-09
1.44808e-09
-4.94039e-10
-2.37201e-09
-1.4672e-09
7.2286e-10
3.02679e-10
-7.76973e-10
1.89447e-10
-7.00388e-10
-1.01376e-09
-1.36264e-10
-1.72232e-09
-9.77575e-10
-7.75047e-10
-1.10655e-09
-7.58097e-10
-1.51718e-09
-9.11475e-10
1.75248e-10
1.47837e-09
-1.08752e-09
-1.98162e-09
3.17567e-09
-1.62369e-09
-1.18359e-09
-1.71463e-09
-9.97493e-11
1.91047e-09
-5.87178e-10
-1.54131e-09
-1.13986e-09
2.08477e-09
-1.14443e-09
-1.05258e-09
-1.70622e-10
-1.28801e-09
-1.75243e-09
-1.73622e-10
-9.66908e-10
-1.78954e-09
-1.98218e-10
-4.56695e-10
-1.2619e-09
-1.42588e-10
-1.19359e-09
-1.54287e-09
8.5703e-10
-1.35491e-09
-1.29891e-09
-4.54275e-10
1.9145e-09
-4.07341e-10
4.59474e-10
-2.5482e-10
-1.15224e-09
1.02269e-09
-1.17936e-09
-7.2663e-10
4.75956e-10
1.63709e-09
9.68659e-10
-1.1236e-09
-1.03361e-09
7.80081e-10
4.80953e-10
-4.53735e-10
6.41912e-10
-2.5314e-10
8.57049e-10
-1.61362e-09
-7.12003e-11
3.74031e-10
2.55312e-09
9.35977e-11
-1.14776e-09
1.83451e-09
2.87305e-11
6.16752e-10
3.63127e-09
-3.7361e-11
-1.68078e-09
2.14838e-09
-1.78679e-10
1.41594e-09
9.23735e-10
6.02704e-10
7.1724e-10
-9.53047e-11
-6.58919e-10
-1.06366e-09
1.13946e-10
-2.3295e-10
-1.73659e-10
-4.39356e-09
3.98781e-09
-9.9931e-10
1.58606e-09
5.58446e-09
-6.09781e-09
-2.47078e-10
1.69542e-09
-2.80791e-09
1.78465e-11
3.39753e-09
-2.10951e-12
1.69382e-11
1.06517e-09
2.25799e-09
-3.3691e-09
9.19432e-11
1.03609e-09
-1.94453e-10
-1.90096e-09
2.82603e-09
-1.13362e-09
-8.07882e-10
-1.07899e-09
7.91147e-10
9.12161e-10
2.2648e-09
-1.63752e-09
-3.91563e-10
1.85235e-09
-2.85447e-09
2.84476e-10
-3.11862e-09
1.79966e-09
-1.67648e-09
-1.97824e-09
-2.31838e-09
2.24499e-09
-1.33285e-09
-2.81885e-09
2.30181e-10
-2.98918e-09
4.67708e-10
-3.12795e-09
-3.18176e-09
6.11255e-10
2.0829e-09
1.71518e-10
-2.60807e-09
-2.77433e-09
3.64746e-10
-4.63973e-09
1.00707e-09
4.6149e-09
-7.30467e-09
1.80043e-09
-6.05464e-09
7.09061e-09
-2.56489e-10
-5.69757e-09
2.33779e-09
-5.26539e-09
-1.6842e-09
-2.44617e-09
9.37085e-10
-1.55794e-09
-1.26407e-09
2.00716e-10
-1.43232e-09
-1.19126e-09
-1.06626e-09
-3.5234e-10
-5.07763e-10
-2.24805e-09
-9.2714e-10
6.45468e-10
1.46346e-09
1.34752e-09
-1.02373e-09
-1.50485e-09
-1.06701e-09
7.40848e-10
4.61322e-10
-7.81791e-10
2.75429e-10
-6.51885e-10
-1.2547e-09
2.09723e-10
3.06844e-09
-1.98435e-09
-1.01835e-09
1.3689e-11
3.84325e-09
-2.45766e-09
-1.18953e-09
-1.23767e-10
3.25447e-09
-2.01166e-09
-1.10534e-09
-2.87068e-10
-6.29339e-10
-1.18896e-09
-8.70877e-10
-1.73935e-10
-9.5688e-10
-3.76489e-10
-7.35823e-10
-1.29987e-09
-8.11375e-10
-1.83256e-11
-5.9936e-10
-1.06279e-09
-1.29048e-09
-2.10552e-10
-1.04581e-09
-1.58387e-09
-2.22668e-10
-7.62202e-10
-1.30324e-09
-2.4228e-10
-3.24886e-10
4.171e-10
-1.65325e-10
-6.89097e-10
1.16148e-09
5.72485e-10
-1.16895e-09
-8.89921e-10
-1.26319e-09
-3.52646e-10
2.19225e-09
-2.69565e-09
-1.00797e-09
-7.75955e-09
5.10488e-09
6.38407e-09
-3.0741e-09
-1.60326e-09
6.67494e-09
-1.14713e-08
-4.50395e-09
9.89562e-09
-2.2083e-09
8.19285e-09
-1.37137e-08
-5.88156e-09
1.20074e-08
-2.30677e-09
8.63565e-09
-1.39673e-08
-6.61737e-09
1.20474e-08
-2.22937e-09
7.88258e-09
-6.33003e-09
-1.22222e-08
1.05922e-08
-1.66138e-09
6.07834e-09
-9.32816e-09
-5.0021e-09
7.68392e-09
-1.01272e-09
-3.65069e-09
3.73749e-09
-5.83561e-09
5.10016e-09
-2.20947e-10
-1.53488e-09
-2.8776e-09
1.68794e-09
1.93276e-09
7.42697e-10
-4.95511e-10
-1.16473e-09
6.96596e-10
3.53619e-10
-9.12761e-11
3.74501e-10
1.05852e-10
1.05945e-09
-6.56785e-10
4.9743e-10
-5.46477e-10
5.24696e-10
-2.56721e-10
7.37006e-10
5.44635e-11
1.08688e-09
-9.78533e-10
1.26068e-09
-8.44332e-10
7.34545e-10
-3.1118e-10
5.27469e-10
1.36034e-10
3.09591e-10
-8.89539e-10
2.12311e-09
-8.08625e-10
8.13196e-11
-1.87635e-09
3.68939e-09
-1.58479e-09
3.58469e-11
4.57851e-09
-2.41998e-09
-2.11307e-09
4.66092e-09
-2.42686e-09
-2.23558e-09
-7.62658e-11
1.75057e-09
2.77867e-09
-8.28342e-11
1.8064e-09
1.68684e-09
8.05261e-11
1.02914e-09
-1.4991e-10
-1.53448e-09
2.19416e-09
-6.36339e-10
-8.36968e-10
-8.70771e-10
4.94649e-10
6.57833e-10
9.78118e-10
-1.36902e-09
7.76711e-11
1.486e-09
3.35507e-10
-1.78103e-09
9.37638e-10
-7.80869e-10
-1.3489e-09
-1.91161e-09
1.33383e-10
2.51009e-09
-1.43179e-09
-3.45977e-09
4.6984e-10
-4.17258e-09
6.82017e-10
-3.9616e-09
-2.90868e-09
-7.6681e-11
-4.04481e-10
-9.7126e-10
-8.81126e-10
-1.70476e-09
-1.23191e-09
-5.66923e-10
-1.05183e-09
-1.16426e-09
-7.38854e-10
-8.8676e-10
1.01927e-09
-4.33874e-10
-1.18225e-09
-5.67416e-10
4.83292e-11
4.17785e-09
3.63112e-10
-3.53695e-09
1.75898e-09
-4.26925e-09
4.46978e-09
1.09523e-08
1.44032e-09
-8.58369e-09
-6.51976e-09
5.60053e-09
1.50082e-10
8.70266e-09
-6.08793e-09
1.89286e-09
-9.27834e-09
1.12476e-08
1.65359e-09
-1.3278e-08
-9.28449e-09
1.26366e-08
2.44795e-09
1.90803e-09
-7.98385e-09
8.21708e-09
-1.36866e-08
1.64088e-08
1.97349e-09
-1.10047e-08
-9.77168e-09
1.32593e-08
9.0964e-10
-5.07495e-09
7.52686e-10
-6.61966e-09
-1.38939e-09
1.9518e-10
-4.27841e-09
-1.11664e-10
1.77849e-10
1.83145e-09
1.41433e-09
-9.23926e-11
5.17686e-09
-4.25295e-09
6.65161e-09
-5.69491e-09
-6.38502e-09
1.1676e-08
4.19458e-10
-1.49099e-09
1.50578e-08
1.11324e-09
-1.13969e-08
-9.66814e-09
-1.14492e-08
-8.90779e-09
-1.51497e-09
-8.58692e-09
1.09134e-09
-6.71699e-09
-5.34551e-09
-5.85723e-09
-1.76462e-09
1.28661e-10
-3.90012e-09
-2.73105e-09
-1.07006e-09
1.20442e-09
-4.40458e-10
-2.30257e-09
-1.19243e-09
6.03915e-10
2.83139e-10
-7.52685e-10
1.13366e-10
-5.90379e-10
-9.03411e-10
-5.95249e-11
-1.48987e-09
-7.94881e-10
-5.22065e-10
-9.20295e-10
-6.28805e-10
-1.13143e-09
-7.02851e-10
1.18142e-10
1.19409e-09
-6.79952e-10
-1.57616e-09
2.39371e-09
-1.26902e-09
-6.47268e-10
-1.38114e-09
-2.18107e-10
1.56658e-09
-1.89712e-10
1.49526e-09
-6.63713e-10
-1.2891e-09
-7.54415e-10
-1.31715e-10
-5.94064e-10
-8.69118e-10
-1.16521e-09
-3.03976e-10
-7.10331e-10
-1.20686e-09
-2.5518e-10
-4.83362e-10
-7.32225e-10
-1.8385e-10
-1.19782e-09
-1.21931e-09
7.64806e-10
-7.83416e-10
-2.12781e-09
-6.25262e-11
1.77591e-09
-2.55511e-10
4.69812e-10
-8.48522e-10
-1.49211e-10
8.34627e-10
-9.32037e-10
-4.77155e-10
3.19041e-10
1.42943e-09
1.01904e-09
-1.14405e-09
-7.89518e-10
6.36743e-10
4.02826e-10
-5.1865e-10
9.35501e-10
-1.87351e-10
8.77133e-10
-1.33826e-09
-6.13333e-10
5.55801e-10
5.29982e-10
1.84082e-10
1.89499e-10
-2.64357e-11
-3.90061e-10
-7.47586e-10
5.40042e-11
2.88356e-12
-2.73758e-11
-2.7904e-09
2.26256e-09
-2.70068e-10
1.10982e-09
-4.34207e-09
4.73587e-11
3.42757e-09
1.06594e-09
-1.38783e-09
2.53863e-11
2.22263e-09
7.12839e-12
1.58018e-09
-4.09937e-11
6.12239e-10
3.36903e-09
-4.20643e-11
-1.65319e-09
-4.24087e-11
1.0133e-09
-1.24731e-10
-3.44249e-09
1.10483e-09
-5.91531e-11
-2.80872e-09
8.66794e-10
-1.74321e-09
4.83334e-10
1.93871e-10
-6.65981e-10
-5.53129e-10
-7.17979e-10
8.47112e-11
-1.39528e-09
-1.30429e-09
-1.73251e-09
-1.66734e-09
-5.41277e-11
-2.47153e-09
7.52152e-10
-1.83119e-11
-2.0803e-09
6.49202e-10
2.65792e-10
-1.34734e-09
3.97247e-10
4.95281e-10
-9.06045e-10
1.23424e-10
-1.44673e-09
7.06751e-10
-5.90025e-10
-8.47246e-10
-9.15509e-10
3.34147e-10
-7.85688e-10
-2.52648e-10
1.14158e-10
-8.19652e-10
4.05735e-10
-3.36651e-10
-6.85497e-10
-5.83197e-10
-7.84923e-10
-1.49986e-10
1.02747e-10
7.82588e-10
-6.85387e-10
-9.83015e-10
1.00888e-10
8.19391e-10
-1.24405e-09
4.2508e-11
1.19132e-09
-1.18967e-09
7.25652e-10
9.20945e-11
8.61777e-10
6.30928e-10
3.95213e-10
4.39343e-10
1.56727e-10
6.40204e-10
1.70105e-09
-7.34762e-10
-2.95191e-11
1.24582e-09
1.09159e-09
1.00627e-10
6.0481e-10
6.24094e-10
1.44502e-10
-1.27597e-10
1.54134e-09
1.14456e-09
-1.02096e-09
-1.06013e-09
5.90364e-10
1.45514e-09
-7.46614e-11
-4.29519e-10
9.52189e-10
1.60179e-09
-9.02635e-10
-1.06099e-09
8.00781e-10
-4.48794e-10
-3.61412e-11
1.30263e-09
3.19575e-10
7.80367e-10
-6.86536e-10
-1.16089e-09
-1.91635e-09
1.1759e-10
2.41709e-09
-2.88924e-09
1.09124e-11
-3.93842e-09
-1.29878e-11
-1.5359e-09
-1.39678e-09
-1.97704e-09
7.14345e-10
-8.68028e-10
3.26188e-10
-1.70842e-09
-9.03757e-10
1.70038e-10
-8.78241e-10
2.96962e-10
-1.06135e-09
-4.80415e-10
2.00797e-10
-1.03251e-09
-1.76541e-09
-1.17174e-09
1.27447e-09
1.26267e-09
-6.93666e-10
-1.47649e-09
-8.57939e-10
-1.43904e-09
5.06245e-10
4.71341e-10
-9.95507e-10
-1.00691e-09
9.20272e-11
-9.08298e-10
-5.65676e-10
2.53624e-10
-2.02273e-10
-6.50534e-10
-3.09112e-10
3.95884e-11
-1.20159e-09
-8.86953e-10
-4.82472e-11
-1.95017e-09
-8.0427e-10
2.84229e-09
-9.26659e-11
-2.18345e-09
-1.09529e-09
3.32318e-09
-1.45649e-10
-1.62624e-09
2.66519e-09
-9.85952e-10
-2.68246e-10
-5.36972e-10
-9.16575e-10
-1.2214e-09
4.64462e-11
-4.74432e-10
-8.61966e-10
-1.84427e-09
-1.66217e-10
1.65106e-09
-2.55044e-10
-1.26462e-09
-8.50317e-10
1.50801e-09
-5.38871e-10
-6.33426e-10
-2.47962e-10
-5.8676e-10
-9.04389e-10
-2.54587e-10
-4.80175e-10
-6.13245e-10
-2.25574e-10
-1.35276e-09
-1.03823e-09
6.91486e-10
-8.08431e-10
-2.2976e-09
-3.74578e-10
-3.71684e-10
-1.06674e-09
-2.18547e-10
-4.43074e-10
-1.22601e-09
3.65344e-10
-1.55287e-10
8.59687e-10
-1.21268e-09
6.51829e-11
8.5046e-10
-1.12609e-09
-1.76435e-10
2.96768e-10
5.51059e-10
1.1218e-10
1.32164e-10
5.50483e-11
-4.37803e-10
-9.25211e-10
5.75802e-10
5.68969e-11
3.69606e-10
-2.78824e-09
1.68246e-09
-4.3128e-10
2.6794e-09
1.95134e-10
-4.53224e-09
2.45858e-09
9.74035e-10
-1.14171e-09
-2.08555e-10
4.46132e-10
2.83046e-10
1.80961e-10
6.38902e-11
-3.49285e-10
-6.89965e-10
9.75442e-11
-1.03775e-10
2.23428e-10
1.84318e-09
-1.58783e-10
8.59808e-10
2.78993e-10
-3.35669e-09
2.60009e-09
7.51582e-10
-9.46665e-10
1.00189e-10
1.61797e-09
9.09538e-11
1.2219e-09
-1.55178e-12
4.23007e-10
-1.05364e-11
-1.23198e-09
-9.42964e-11
-1.0132e-09
-9.83352e-10
-4.04883e-10
-4.9683e-10
-5.39928e-10
4.98042e-10
-6.53982e-10
-2.59423e-10
1.04732e-11
-1.21009e-09
6.0823e-10
-4.34163e-10
-6.953e-10
-7.34618e-10
4.52098e-10
-5.79475e-10
-3.098e-10
3.00408e-12
-8.38726e-10
4.55331e-10
-3.1898e-10
-5.11299e-10
-5.87927e-10
-5.48905e-10
-3.60603e-10
-9.48614e-11
3.72396e-10
-2.52489e-10
-2.62313e-10
-4.06498e-10
3.27402e-10
-3.74847e-10
-5.63165e-10
-6.50017e-11
-2.8021e-10
-5.71421e-10
8.93936e-10
-3.09476e-10
-1.87414e-10
-4.62036e-10
5.50913e-10
-1.01256e-09
1.65923e-10
6.90657e-10
-6.16984e-10
4.36986e-10
4.02567e-11
7.1118e-10
5.063e-10
1.9883e-10
8.2011e-10
1.59511e-10
3.62482e-10
2.25158e-09
-1.28762e-09
-4.21157e-10
2.77296e-10
2.34073e-09
1.38174e-09
3.27358e-10
-1.79828e-09
1.82974e-09
1.44406e-09
1.58493e-10
1.37305e-09
2.12743e-10
-1.76842e-09
2.40668e-09
-4.28866e-09
-2.02635e-09
2.35262e-09
2.0562e-09
-4.18201e-09
2.8816e-09
-3.01175e-09
2.48136e-09
-2.78536e-09
-2.64959e-09
1.83337e-09
-2.52813e-09
6.50604e-10
-1.67105e-10
4.63442e-09
-3.52449e-09
-4.85388e-09
1.38289e-09
1.82221e-09
-1.6401e-09
4.96476e-10
-3.32978e-09
1.62905e-09
-5.86775e-09
-3.25662e-09
1.66439e-09
-6.49336e-09
-4.34177e-09
1.77022e-09
-1.79466e-09
3.22546e-09
-6.21165e-09
2.04563e-09
-3.75815e-09
5.46471e-10
-2.21164e-09
-1.25761e-09
1.37628e-09
-8.88488e-10
-1.18659e-09
2.29091e-10
6.65672e-10
-1.00582e-09
-1.04897e-09
2.02527e-10
-1.06742e-09
-7.38912e-10
7.62581e-10
-4.34442e-10
-8.289e-10
-5.6666e-10
-4.94146e-10
4.75395e-11
-1.56059e-09
-6.06864e-10
1.02277e-09
7.0375e-10
-1.54343e-10
-7.47033e-10
-1.36296e-09
3.67462e-10
1.78732e-10
-4.49306e-10
9.83273e-11
-3.67427e-10
-5.65026e-10
5.52257e-12
-1.19425e-09
-6.63104e-10
-8.55128e-11
-1.30876e-09
-7.83645e-10
-4.5518e-10
-7.16179e-10
-5.40385e-10
-8.46392e-10
-5.22607e-10
6.68522e-11
8.46975e-10
-3.0409e-10
-1.19707e-09
1.4546e-09
-7.99827e-10
-5.23563e-10
-1.19672e-09
-4.28056e-10
-1.88908e-10
-5.88324e-10
-1.01095e-09
-3.4108e-10
-5.46627e-11
-4.26591e-10
-3.51619e-10
-7.61025e-10
-1.32824e-10
-3.00265e-10
-5.42827e-10
-1.21775e-10
-1.50509e-09
-4.29238e-10
5.95818e-10
-7.3766e-10
-2.75066e-09
-3.14405e-10
-7.94585e-11
-1.57355e-09
-1.51422e-10
-2.96538e-10
-1.17715e-09
1.68203e-10
-1.4429e-10
-1.3599e-09
-5.05786e-12
-1.17709e-10
-1.345e-09
1.92308e-10
-8.49895e-11
8.48996e-10
-1.02672e-09
1.45014e-10
6.06122e-10
-1.2691e-09
4.35821e-10
1.42177e-10
3.83821e-10
-1.69204e-12
8.33425e-11
1.40653e-10
-5.13486e-10
-7.99962e-10
5.55553e-10
1.57389e-10
4.91774e-10
1.12725e-09
-2.17827e-09
-2.8082e-10
1.74853e-09
1.72004e-09
-3.4665e-09
7.70534e-10
6.12029e-10
-1.15509e-09
4.0291e-10
2.66621e-10
9.79109e-11
1.53562e-10
9.39328e-11
-3.49059e-10
-4.69628e-10
1.38643e-10
9.58532e-11
2.97007e-10
1.23132e-09
-2.12217e-10
4.83241e-10
1.61693e-09
-1.88084e-09
2.89892e-10
3.8224e-10
-6.26208e-10
1.25689e-10
9.24661e-10
7.94613e-11
6.87818e-10
9.01778e-11
2.46853e-10
1.48473e-09
1.74922e-11
-7.23457e-10
2.97938e-11
4.40183e-10
-1.03073e-09
3.04265e-10
-2.3645e-10
-3.59235e-10
-4.17558e-10
5.22812e-10
-3.85289e-10
-2.50908e-10
-1.23072e-10
-1.05873e-09
5.76432e-10
-3.627e-11
-7.23008e-10
-6.84748e-10
-9.73941e-11
-2.26182e-10
-2.23995e-10
-2.53432e-10
-1.3396e-10
-7.06024e-11
-9.55342e-11
-2.05032e-10
-2.05355e-10
1.46442e-10
-1.88199e-10
-5.67225e-11
2.95218e-12
1.99785e-10
-3.58355e-10
4.27015e-11
2.16245e-10
-4.74333e-10
8.30387e-11
-4.41298e-10
6.78646e-11
1.85287e-10
-1.57311e-10
-6.07666e-10
1.38419e-10
3.43465e-10
1.10946e-10
-3.26825e-10
5.77064e-11
-1.93308e-10
-6.63195e-10
4.59907e-10
-3.72652e-10
-1.69608e-10
2.91217e-10
4.42465e-11
-4.92548e-10
5.46481e-10
7.22501e-10
-3.58018e-10
-6.19748e-10
7.51226e-10
-4.28475e-10
1.72122e-10
5.16017e-11
-7.62233e-10
7.31947e-11
8.94499e-10
-4.97244e-10
-5.36663e-10
-2.29326e-09
-1.6672e-09
1.411e-09
-2.33373e-09
-1.51522e-09
1.09872e-09
-2.08659e-09
-1.29782e-09
7.36903e-10
-5.64134e-11
6.61926e-11
-9.06046e-10
-1.13431e-09
-5.60259e-11
1.06174e-10
-2.65109e-10
-3.90035e-10
5.19194e-11
-4.99314e-10
5.57536e-10
1.33928e-09
-1.36518e-09
-4.79737e-10
6.47901e-10
1.98529e-10
3.58036e-10
-6.46942e-10
5.9736e-10
9.61342e-10
-2.13765e-10
2.7514e-09
-9.16214e-11
-1.86062e-09
3.49181e-09
9.66062e-10
-2.19993e-09
4.09214e-09
-2.68548e-09
1.54877e-09
1.83485e-09
3.90719e-09
-8.56958e-09
2.06159e-09
-5.22549e-09
9.66111e-09
-4.44949e-09
1.71426e-09
6.08163e-09
-2.86754e-09
-2.8366e-09
7.80991e-10
-2.24408e-09
1.3773e-10
-5.59917e-09
7.06363e-09
7.64841e-10
-3.50733e-09
-3.82245e-09
7.29642e-10
-3.34503e-09
2.7699e-10
-1.36184e-09
-1.39632e-10
-2.39946e-09
4.14793e-11
-7.69425e-10
4.79543e-11
-1.28696e-09
1.81094e-09
-5.30451e-10
-4.27101e-11
-1.78422e-09
2.63232e-09
-7.57427e-10
-1.03736e-10
-1.83972e-09
2.77317e-09
-8.72416e-10
-1.03716e-10
-1.32026e-09
2.06073e-09
-7.40478e-10
-2.24623e-10
-3.48836e-10
-7.27314e-10
-1.04294e-09
3.55138e-11
-4.13919e-10
-1.4405e-09
-1.40027e-09
1.22634e-10
1.67521e-09
-1.42955e-09
-2.57196e-09
4.54882e-11
2.51551e-09
-9.76521e-10
-3.30445e-09
2.748e-09
1.03387e-10
-6.6636e-10
-2.95961e-09
-1.0125e-10
-2.96059e-10
-1.8543e-09
-8.95721e-11
-6.0116e-11
5.46006e-10
-3.58698e-11
-7.46088e-10
7.51837e-10
5.60385e-11
-9.12052e-10
4.40533e-11
-1.23921e-09
5.39538e-10
8.78516e-10
-2.63714e-09
5.77351e-10
-8.48125e-10
1.92826e-09
5.1822e-09
-6.30016e-09
-8.53709e-10
-1.68492e-09
2.92544e-09
8.03802e-09
-7.84752e-09
-1.9703e-09
5.03796e-09
8.03551e-09
-9.37081e-09
-2.58607e-09
-2.98128e-09
6.43454e-09
-9.37598e-09
7.86018e-09
-3.90775e-09
-3.07076e-09
6.7195e-09
-8.6542e-09
6.66261e-09
-4.63844e-09
-2.4801e-09
-6.79187e-09
5.55853e-09
4.77636e-09
-4.13368e-09
-1.47153e-09
3.44786e-09
-4.36697e-09
2.78062e-09
-2.87005e-09
-8.37604e-10
1.39731e-09
-2.07219e-09
1.58938e-09
-1.5484e-09
-4.8287e-11
1.42044e-10
3.5094e-10
-4.56472e-10
-8.25793e-10
6.41309e-11
-5.47431e-11
-7.42757e-11
1.66177e-11
2.29994e-10
-8.13096e-11
5.75042e-11
1.93277e-10
-1.72399e-10
2.09359e-11
1.6686e-10
-4.32616e-10
1.00699e-10
-5.30597e-10
6.58406e-11
-1.50221e-10
6.42905e-12
-2.76514e-10
-1.10274e-10
2.0825e-10
-6.21775e-12
-2.09264e-11
-3.3131e-10
1.32214e-10
-6.96569e-10
1.64967e-10
9.1775e-11
4.76916e-11
-3.34076e-10
-4.18538e-10
-1.27448e-10
-1.15165e-10
3.70846e-11
-8.3369e-12
-3.32118e-10
2.02991e-10
1.05687e-09
-1.17609e-09
-1.98941e-10
7.38535e-10
3.08917e-10
-9.12499e-10
6.80107e-11
1.73838e-11
-7.71528e-10
-3.02149e-10
6.10256e-10
1.97718e-09
-1.92449e-09
-6.45582e-10
8.01042e-10
3.61159e-10
1.31868e-10
-6.83825e-10
3.88154e-11
-3.35773e-10
-6.28845e-10
4.03073e-12
-1.16362e-09
-5.85806e-10
-8.74848e-11
-1.12006e-09
-6.28139e-10
-3.73404e-10
-5.96454e-10
-4.37885e-10
-6.43367e-10
-4.7051e-10
9.10995e-11
6.49376e-10
-2.37156e-10
1.21714e-09
-5.22888e-10
-1.10047e-09
-9.55514e-10
-8.10724e-11
-6.00845e-10
-1.24072e-09
-1.82194e-09
-4.64836e-10
-1.10093e-09
-2.7201e-09
-7.24167e-10
-6.09483e-10
-2.77803e-09
-6.73066e-10
-1.44671e-10
-1.97913e-09
-3.40016e-10
8.84455e-12
-8.71672e-10
-2.7941e-11
2.33568e-10
-1.10051e-09
-3.62768e-11
1.95167e-10
9.008e-10
-1.09907e-09
2.36653e-10
8.39545e-10
-9.23104e-10
2.62494e-10
1.6218e-11
5.33584e-10
-7.76869e-11
-8.8728e-11
4.72365e-10
-7.06696e-10
-1.13146e-09
1.60461e-10
1.04609e-09
-2.95395e-09
-1.43954e-10
5.39596e-10
3.77962e-09
-4.81409e-09
1.13933e-10
-1.05461e-09
8.50539e-12
6.60456e-10
-8.33181e-10
2.78172e-10
3.46742e-10
-8.11329e-10
3.41855e-10
1.3125e-10
1.09762e-09
6.50609e-10
-7.41025e-10
7.73207e-11
3.01033e-10
5.40354e-12
4.66657e-10
2.55884e-10
2.0997e-10
-4.81115e-10
1.38932e-10
1.37623e-10
8.37191e-10
2.65983e-10
-4.26541e-10
4.03327e-10
2.10573e-10
4.84846e-10
-7.48707e-10
2.99412e-10
3.67782e-10
2.17562e-10
2.15601e-10
1.7737e-10
7.24979e-10
-1.14956e-10
-3.13001e-10
2.05009e-10
1.89081e-09
-2.03678e-09
-1.89668e-10
-1.53849e-10
3.83398e-09
9.7962e-11
-4.60084e-09
2.71354e-09
2.33836e-09
-2.6474e-09
-4.91568e-10
-4.86144e-09
9.32804e-10
3.10785e-09
-2.05158e-09
2.16976e-09
-3.2268e-09
9.72939e-10
-1.86659e-09
2.1168e-09
-3.99472e-09
1.2126e-09
-3.68116e-09
1.22983e-09
2.99303e-09
-3.99131e-09
1.24561e-09
-2.28476e-09
-8.77179e-10
-3.95431e-09
1.1498e-09
-1.60745e-09
-1.25331e-09
-3.98938e-10
-1.29284e-09
-4.63588e-10
4.23386e-10
1.00419e-11
-7.25046e-10
-4.15516e-10
-1.25245e-10
-3.67718e-10
3.53572e-11
-7.44437e-10
-6.80442e-10
-6.54974e-11
1.6641e-10
-1.01746e-09
1.72126e-10
1.68677e-10
-9.77749e-10