/*--------------------------------*- C++ -*----------------------------------*\
| =========                 |                                                 |
| \\      /  F ield         | OpenFOAM: The Open Source CFD Toolbox           |
|  \\    /   O peration     | Version:  5.0                                   |
|   \\  /    A nd           | Web:      www.OpenFOAM.org                      |
|    \\/     M anipulation  |                                                 |
\*---------------------------------------------------------------------------*/
FoamFile
{
    version     2.0;
    format      ascii;
    class       surfaceScalarField;
    location    "60";
    object      phiRest;
}
// * * * * * * * * * * * * * * * * * * * * * * * * * * * * * * * * * * * * * //

dimensions      [0 3 -1 0 0 0 0];

internalField   nonuniform List<scalar> 
101438
(
-1.89378e-09
-3.61848e-09
2.21199e-10
-4.39913e-10
5.34456e-10
-1.97928e-09
-9.03856e-12
1.03701e-09
-2.0537e-09
-3.68392e-11
6.13643e-10
9.41102e-11
-6.43667e-10
-1.16496e-09
-1.86302e-09
-1.6209e-09
-2.89037e-09
-1.58519e-09
1.62957e-10
-4.19509e-09
-3.39257e-09
2.58566e-10
-3.31307e-09
-4.33998e-09
-1.60499e-10
-1.98008e-09
-3.24084e-09
-7.13956e-11
-5.97181e-10
4.15597e-10
-1.73291e-09
-6.56112e-11
1.14752e-09
-1.64253e-09
-9.4407e-10
8.41911e-10
2.81791e-10
-7.72417e-10
3.85408e-09
-1.86978e-09
5.4936e-11
-1.75747e-09
2.42415e-09
1.19665e-11
1.38113e-09
3.75165e-09
1.16477e-10
-1.34988e-09
2.31415e-09
-8.23433e-12
1.41787e-09
4.18185e-11
-1.42144e-09
1.18687e-11
-6.45849e-10
-9.93155e-10
-7.37961e-10
-1.08609e-10
-1.12381e-09
-2.01646e-09
-2.39091e-10
-1.92564e-09
-9.67898e-10
-5.32745e-10
-8.88941e-10
-6.80417e-10
-1.89376e-09
-3.31526e-10
1.07315e-10
-3.48456e-09
-1.94495e-09
1.43127e-10
-4.09926e-09
-3.52984e-09
-1.95433e-10
-3.21147e-09
-3.92653e-09
-2.02064e-10
-1.78594e-09
-2.79491e-09
-3.63536e-10
-5.47971e-10
4.47048e-10
-1.46394e-09
-2.21098e-10
1.27345e-09
-1.61882e-09
-1.04535e-09
8.42744e-10
9.5395e-10
-8.75991e-10
-4.9202e-10
4.904e-10
1.14903e-11
6.56344e-10
-1.72196e-09
-2.70968e-11
6.00689e-10
-2.98563e-11
-6.93177e-10
2.02249e-09
-7.05387e-10
-6.46602e-10
-7.00358e-10
4.29917e-09
-2.3463e-10
-1.98715e-09
2.53579e-09
2.03171e-10
1.57219e-09
4.21045e-09
-9.08676e-11
-1.46734e-09
2.46819e-09
7.1303e-11
1.66275e-09
-2.48624e-10
-1.56461e-09
-1.33246e-09
-9.574e-10
-1.04198e-09
1.30261e-10
-1.57787e-09
-2.2859e-09
1.37032e-09
-9.86179e-10
-6.81701e-10
-1.57929e-09
-6.03322e-10
1.43742e-10
-2.34136e-09
-1.17154e-10
8.62052e-10
1.83609e-10
-6.98972e-10
-1.15264e-09
-6.73374e-10
-2.86284e-11
3.45313e-09
-1.11308e-09
-2.12781e-09
-1.33973e-10
3.27555e-09
-2.07462e-09
-1.09557e-09
-4.84031e-10
1.82209e-09
-9.2021e-10
-5.5183e-10
-1.99454e-09
-4.77826e-10
4.33308e-11
-3.10542e-09
-2.151e-09
-2.67991e-10
-3.12021e-09
-2.93291e-09
-9.78813e-10
-2.27473e-09
-2.78866e-09
-8.51697e-10
-1.54781e-09
-1.60782e-09
-5.83036e-10
-4.0846e-10
4.78367e-10
-1.49953e-09
-1.18204e-10
1.11891e-09
-1.33917e-09
-8.41084e-10
6.52885e-10
9.05304e-10
-9.26843e-10
-4.54622e-10
4.35118e-10
-1.20542e-10
7.01475e-10
-1.53114e-09
-1.1488e-10
4.8992e-10
4.13667e-11
-6.26731e-10
2.07039e-09
-1.15726e-09
-1.11124e-10
-7.60633e-10
6.18923e-10
7.18972e-10
1.00269e-09
-1.10956e-09
7.91825e-11
2.04359e-09
-3.05008e-09
2.60398e-10
1.74878e-09
3.23256e-09
-1.36423e-10
-1.28722e-09
1.39056e-09
8.53888e-10
1.19131e-09
3.16017e-09
-8.93473e-10
-9.67072e-10
8.11151e-10
1.08793e-09
-1.64853e-09
1.79108e-10
-3.81577e-09
-4.66439e-09
4.03454e-10
-6.10087e-09
-9.84163e-10
-6.696e-09
-1.38847e-09
-1.40275e-10
-6.37438e-09
-1.31793e-11
-6.89524e-11
-3.72613e-12
1.28467e-09
5.97905e-10
1.11246e-10
3.38717e-09
-3.47367e-09
-5.81316e-09
-1.42506e-10
-6.31282e-09
-6.75171e-09
7.36897e-09
2.49203e-11
-2.60355e-10
-6.93945e-09
-7.28628e-09
7.96922e-09
-4.00901e-10
-4.68543e-09
-6.89176e-09
7.27038e-09
4.44738e-09
-1.67119e-10
-1.16788e-09
-3.86791e-09
-6.06361e-10
-1.82038e-09
-2.02504e-09
-1.32848e-09
1.43579e-09
-9.49255e-10
-1.32867e-09
-1.18292e-09
-6.55445e-10
6.37752e-11
-2.62724e-09
1.02573e-09
-2.06584e-10
2.28115e-10
-3.50255e-10
-1.44103e-09
-1.06411e-09
-8.31326e-11
-2.09575e-09
3.93215e-09
-1.52517e-09
-3.14976e-10
-1.88062e-09
3.58701e-09
-1.47456e-09
-4.12798e-10
2.00959e-09
-6.93027e-10
-1.21876e-09
-1.75599e-09
-1.01503e-10
-7.0637e-10
-2.31348e-09
-1.84731e-09
-5.28143e-10
-4.2618e-10
1.25501e-10
-1.05762e-09
-9.5517e-10
-4.33656e-10
4.85316e-10
-8.04625e-12
-4.69791e-10
-2.33685e-10
3.91089e-10
-6.19884e-10
2.88292e-11
1.16113e-09
-1.12386e-09
-9.4431e-10
6.73352e-10
9.46254e-10
-1.00185e-09
-1.23161e-09
9.1623e-10
-1.67192e-09
-1.54157e-09
-3.87809e-10
-5.12258e-09
6.16357e-09
4.9958e-09
-4.73275e-09
-3.28338e-10
-7.17625e-09
5.96638e-09
7.63954e-09
-6.48913e-09
-4.16969e-10
-7.78384e-09
8.25414e-09
6.59527e-09
-6.97692e-09
-4.13269e-10
-6.45054e-09
5.64661e-09
6.89678e-09
-6.09653e-09
1.96012e-10
-4.46319e-09
-4.8228e-09
4.88896e-09
3.78776e-09
2.29229e-09
2.0635e-09
-2.31e-09
-1.84978e-09
2.22118e-09
2.59535e-09
-2.09053e-09
-4.33703e-10
1.397e-09
2.27556e-09
-1.5028e-09
5.14217e-11
4.4916e-10
-4.47633e-10
7.64431e-11
1.31901e-09
1.65907e-09
-8.02954e-10
-5.43374e-10
1.65115e-09
2.5578e-09
-1.44139e-09
-1.10853e-09
1.5522e-09
5.93638e-11
1.93037e-09
7.80538e-10
1.39912e-09
-8.5288e-10
-1.32285e-09
-2.10265e-09
1.39845e-10
-2.31243e-09
-2.36971e-09
2.93615e-10
-1.91335e-09
-2.538e-09
3.18537e-10
-1.11565e-09
-1.85131e-09
1.04304e-10
3.83169e-10
-3.72963e-10
-1.2201e-09
9.41979e-11
-8.14589e-10
-4.8117e-10
-1.21149e-09
-6.08604e-10
6.32545e-10
7.58731e-10
-4.02121e-10
-9.47336e-10
-6.2076e-10
4.1584e-10
-3.47629e-10
8.19062e-11
1.04176e-10
-5.79485e-10
-5.49868e-10
-3.81142e-11
-8.03677e-10
-1.14978e-09
-5.15547e-10
-6.34275e-10
-7.68908e-10
-9.91799e-10
4.28123e-13
-5.67137e-10
1.04295e-09
-6.00624e-10
-1.20788e-09
-1.06845e-09
1.88515e-09
-1.08847e-09
-9.80845e-10
-3.78647e-10
-3.31831e-10
-7.44889e-10
-9.66906e-10
-5.90978e-10
4.83215e-11
-2.58979e-10
-5.72932e-10
-6.43411e-10
5.4887e-12
-2.38634e-10
3.29521e-10
-6.53159e-10
-1.06439e-11
1.04286e-09
-1.04398e-09
-8.55352e-10
6.17843e-10
1.08103e-09
-8.32507e-10
-1.25141e-09
-1.11404e-10
-3.10087e-10
3.95548e-10
-1.26396e-09
-7.28992e-11
8.84836e-10
-1.07507e-09
-6.5522e-10
5.35378e-10
7.13321e-10
-7.72106e-10
-3.72825e-10
3.78037e-10
-1.32978e-10
5.51567e-10
-1.24463e-09
-7.74149e-11
3.97662e-10
-1.73079e-11
-5.84229e-10
1.94089e-09
-1.08604e-09
-3.57075e-11
-8.36448e-10
-8.12222e-12
6.76869e-10
7.36545e-10
-1.75709e-09
4.00453e-10
6.1197e-10
1.91397e-09
-5.75394e-10
-7.13145e-10
-4.62222e-10
-1.78345e-09
1.62678e-09
-1.0237e-09
-4.08989e-10
-6.5633e-10
6.36592e-10
2.99575e-09
-2.85187e-09
2.57427e-11
-4.64555e-11
4.53817e-09
1.00256e-09
-3.93989e-09
-2.20567e-09
-2.65057e-09
1.82467e-10
-2.04796e-09
1.41443e-10
-1.28898e-09
8.43819e-11
-4.03659e-10
-1.32798e-09
4.04694e-11
-1.37357e-09
-8.05663e-10
8.28255e-10
7.65065e-10
-4.66252e-10
-8.54213e-10
-8.18187e-10
3.97736e-10
-4.97107e-10
5.87541e-11
1.91442e-10
-7.57101e-10
-5.39524e-10
1.5029e-09
5.11261e-11
-1.05991e-09
2.13704e-09
-9.36824e-10
-1.33325e-10
-9.62304e-10
1.97022e-09
-8.23485e-10
-2.80017e-10
-4.61342e-10
-5.99855e-10
-1.00551e-09
1.45722e-11
-2.69968e-10
-9.80533e-10
-9.83796e-10
7.29784e-11
8.85862e-10
-4.44627e-10
-8.11022e-10
-7.63288e-10
1.03841e-09
-5.81378e-10
-4.56941e-10
-4.97326e-11
-5.64769e-10
-6.77727e-10
7.96798e-12
-2.06563e-10
3.05811e-10
-6.0236e-10
-6.16358e-11
8.79821e-10
-8.73739e-10
4.88058e-10
-7.00696e-10
9.07445e-10
-7.65808e-10
-1.07941e-09
-1.32471e-10
-2.62476e-10
3.00828e-10
-1.06234e-10
-1.01151e-09
7.07621e-10
-8.79823e-10
-5.15946e-10
4.25682e-10
5.74683e-10
-6.41316e-10
-2.95505e-10
3.08818e-10
-9.38495e-11
4.68933e-10
-1.03645e-09
-5.26675e-11
3.24699e-10
3.72443e-11
-5.04134e-10
1.70934e-09
-8.72524e-10
-4.10215e-11
-7.58555e-10
-6.93068e-11
6.15194e-10
9.63406e-10
-1.5554e-09
-1.41464e-11
5.36835e-10
-1.37518e-10
-6.91878e-10
1.0019e-09
-4.58269e-10
-2.78281e-10
-4.02868e-10
1.03375e-09
1.55641e-09
-6.12074e-10
-9.76195e-10
7.33525e-10
1.25279e-10
4.8223e-10
7.84007e-10
-1.39707e-09
-3.25037e-11
-1.88529e-09
-1.335e-09
-2.67298e-10
6.78726e-11
-7.14938e-10
-3.95044e-10
-8.4319e-10
-8.03907e-10
-4.539e-10
-9.84313e-10
1.71925e-09
-6.48535e-10
-9.1388e-10
-9.60728e-10
-1.41038e-09
-4.81354e-11
-7.03389e-10
-1.41434e-10
-1.03187e-09
2.04086e-10
-2.85052e-11
-2.931e-10
-5.85905e-10
2.29091e-10
-3.51109e-10
-5.2812e-10
5.84598e-10
1.48972e-09
-9.81283e-10
-8.63976e-10
6.2784e-10
-3.41558e-10
2.99855e-10
-1.54671e-12
8.63379e-10
3.28762e-09
-2.80301e-09
-1.02091e-10
-1.77299e-10
-4.83832e-09
1.75751e-10
2.80638e-09
5.32113e-09
-2.70718e-09
2.77777e-09
-3.60737e-09
-3.97762e-09
3.66495e-10
-2.27831e-09
-2.88686e-09
5.98151e-10
-6.31589e-10
9.4225e-11
-2.12067e-09
-1.06021e-09
-3.92587e-10
6.13543e-10
-4.77751e-10
-6.14473e-10
-5.81537e-10
3.13789e-10
1.40335e-10
-2.3318e-10
3.87306e-11
-3.11747e-10
-3.94482e-10
-5.73929e-11
1.08281e-09
-2.99477e-10
-6.87219e-10
-3.11615e-10
9.87508e-10
-4.68922e-10
-2.64379e-10
-6.83983e-10
6.57126e-10
-3.487e-10
6.39368e-11
-4.75707e-10
1.36459e-09
-8.00236e-10
-7.72638e-10
-5.44099e-10
7.31645e-10
-6.50428e-10
-1.28139e-11
-2.66497e-10
8.30235e-10
-5.98351e-10
-5.09487e-10
-4.6131e-10
6.32433e-10
-3.86749e-10
-5.08952e-11
-4.85966e-10
6.91781e-10
-6.50982e-10
-1.614e-11
-3.33524e-10
5.06704e-10
-6.27402e-10
-3.17333e-11
-9.71012e-11
2.1117e-10
-4.11004e-10
-3.65736e-11
5.41742e-10
-5.21274e-10
-3.74823e-10
2.57258e-10
6.85174e-10
6.41358e-10
-5.73634e-10
6.93266e-10
1.37594e-10
-5.17623e-10
3.71942e-10
-2.51909e-10
7.51479e-10
-6.80052e-10
4.29084e-10
-3.66762e-11
5.64971e-10
-4.6454e-11
4.95242e-10
2.44292e-11
-2.6157e-10
2.66849e-10
3.29968e-11
7.23136e-10
5.77178e-10
6.79763e-10
-5.00793e-10
-4.24986e-10
2.29558e-10
-1.08634e-10
7.62226e-10
8.34519e-10
5.57093e-10
-4.96916e-10
9.31604e-10
-2.3124e-10
2.86698e-10
5.10211e-11
4.50612e-10
4.02395e-11
3.6099e-10
3.55051e-10
3.677e-10
4.13799e-10
-3.1972e-11
-3.6039e-10
-3.46588e-10
3.88711e-11
1.87188e-09
-1.85131e-09
-2.01862e-09
2.1093e-09
-5.34127e-10
4.98091e-09
-3.40825e-09
-3.11151e-09
5.44136e-11
-2.29445e-09
4.32107e-09
-3.33049e-09
-5.19725e-10
-1.99114e-09
4.49226e-11
-1.12853e-09
-1.88559e-11
1.07018e-10
-1.44774e-10
-6.64155e-10
-4.26636e-10
1.2037e-11
-8.97092e-10
-5.36485e-10
1.52855e-09
-8.39192e-11
-7.28385e-10
1.28617e-09
-4.61848e-10
-1.42194e-10
-2.69604e-10
-4.72364e-10
-3.84192e-10
-6.29594e-11
-3.45488e-10
-1.56712e-10
-3.22898e-10
-5.02934e-10
-3.46127e-10
2.07923e-11
-2.18148e-10
-4.3016e-10
-5.25802e-10
-4.11609e-11
-3.68291e-10
-6.10447e-10
-7.88216e-11
-2.57255e-10
-4.92912e-10
-2.9118e-11
-1.0723e-10
1.52769e-10
-2.60586e-10
-4.22e-11
4.04856e-10
-4.22746e-10
2.0017e-10
-2.8951e-10
4.6823e-10
-4.31887e-10
-4.43136e-10
6.18684e-10
-8.21456e-11
-1.02148e-10
1.05577e-10
-6.11753e-11
-3.85386e-10
2.28972e-10
-4.16314e-10
-3.6452e-11
1.21645e-10
5.49073e-10
7.73712e-12
-2.22283e-10
3.85806e-10
9.92367e-11
-9.09854e-11
1.55035e-10
-1.95758e-10
6.57417e-10
3.29068e-10
-4.0494e-10
5.81429e-10
-5.92482e-11
7.81813e-10
-7.66575e-11
-1.80835e-10
2.38529e-10
-1.07889e-10
8.32026e-10
5.69581e-10
-4.16849e-10
3.23859e-10
4.78958e-10
-5.50684e-10
-2.17135e-10
2.50577e-10
-7.04275e-11
3.55726e-10
-7.91273e-10
-1.81473e-11
2.36576e-10
5.94109e-12
-4.36108e-10
1.39755e-09
-7.1756e-10
-1.11052e-11
-6.62955e-10
-1.22518e-11
4.84622e-10
8.57924e-10
-1.37545e-09
3.3358e-11
4.71926e-10
-5.08397e-11
-6.87663e-10
8.44796e-10
-3.98376e-10
-1.82e-10
-3.15262e-10
1.22501e-10
2.49882e-10
7.18878e-10
-9.17847e-10
4.31808e-11
-1.01779e-09
-2.10413e-10
-3.24357e-10
-7.60982e-10
-6.47385e-10
4.26753e-10
-1.4851e-10
-6.8285e-10
8.02522e-11
-4.97562e-10
7.53697e-11
-5.84207e-10
-7.09879e-10
1.47992e-10
5.39703e-10
-7.78403e-10
-4.45721e-10
1.002e-10
-6.35715e-10
-7.70333e-10
-5.65358e-10
-2.56193e-10
-4.00072e-10
-8.40845e-10
-4.9371e-10
1.92834e-10
5.7638e-10
6.30833e-10
-4.93765e-10
-3.64865e-10
-6.1305e-10
-5.51193e-10
2.10546e-10
1.50842e-10
-2.6134e-10
-4.62559e-10
2.18416e-11
-4.11715e-10
-1.96689e-10
-8.89286e-10
-3.55931e-10
5.72162e-10
4.50993e-10
-1.63706e-10
-7.07279e-10
-4.69291e-10
2.1439e-10
1.01669e-10
-2.21001e-10
6.61685e-11
-2.18346e-10
-2.97579e-10
-2.39991e-11
-5.0463e-10
-3.02287e-10
-2.05404e-10
-3.18254e-10
-2.28721e-10
-4.09462e-10
-2.75544e-10
2.83262e-11
4.51273e-10
-2.85382e-10
-5.76355e-10
9.38197e-10
-4.85917e-10
-3.14672e-10
-5.03572e-10
-4.94112e-11
5.82271e-10
-1.50553e-10
-4.43257e-10
-3.29049e-10
6.08186e-10
-3.21206e-10
-3.04884e-10
-5.02852e-11
-3.71645e-10
-5.14964e-10
-4.50487e-11
-2.81332e-10
-5.24716e-10
-5.85041e-11
-1.36604e-10
-3.67105e-10
-3.8196e-11
-3.76048e-10
-4.56897e-10
2.73596e-10
-4.18035e-10
-3.70313e-10
-1.45136e-10
5.5744e-10
-1.2734e-10
1.2475e-10
-8.35266e-11
-3.3191e-10
3.02475e-10
-3.46933e-10
-2.42734e-10
1.59853e-10
4.91734e-10
2.67054e-10
-3.31568e-10
-3.41261e-10
2.61262e-10
1.55426e-10
-1.49753e-10
1.72686e-10
-9.71378e-11
2.56031e-10
-4.88555e-10
-4.57895e-11
1.28562e-10
7.70588e-10
7.14523e-13
-3.42592e-10
5.50546e-10
-1.99566e-11
2.03551e-10
1.11788e-09
-4.03147e-11
-5.19299e-10
6.67122e-10
-9.40529e-11
4.53842e-10
2.83501e-10
1.93005e-10
2.34746e-10
-4.41228e-11
-1.91187e-10
-3.36075e-10
1.94744e-11
-8.59606e-11
-9.15088e-11
-1.4738e-09
1.37805e-09
-3.28388e-10
5.10908e-10
1.95244e-09
-2.10226e-09
-1.24172e-10
5.24415e-10
-8.83548e-10
-1.33665e-11
1.07515e-09
-2.03652e-11
-1.95756e-11
3.59033e-10
6.97411e-10
-1.06501e-09
6.41306e-12
3.41619e-10
-7.93482e-11
-6.09806e-10
8.66617e-10
-3.4559e-10
-2.54873e-10
-3.45513e-10
2.17481e-10
2.84132e-10
6.66024e-10
-5.28836e-10
-1.01698e-10
5.19406e-10
-8.94859e-10
1.23628e-10
-9.36616e-10
5.46535e-10
-5.1096e-10
-5.8556e-10
-7.34962e-10
6.42672e-10
-3.79292e-10
-8.46384e-10
7.20585e-11
-8.97507e-10
1.47465e-10
-9.31702e-10
-9.18741e-10
1.7454e-10
6.09346e-10
5.01178e-11
-7.78767e-10
-8.12435e-10
1.00225e-10
-1.56592e-09
3.35966e-10
1.50641e-09
-2.40509e-09
6.15135e-10
-2.08434e-09
2.35849e-09
-7.37755e-11
-1.86169e-09
8.42292e-10
-1.8057e-09
-5.06893e-10
-7.10559e-10
2.81359e-10
-4.69057e-10
-3.77635e-10
5.84087e-11
-4.23646e-10
-3.70594e-10
-3.21844e-10
-1.08834e-10
-1.56668e-10
-6.95631e-10
-2.68537e-10
1.85188e-10
4.57135e-10
4.40829e-10
-3.30015e-10
-4.56207e-10
-3.5023e-10
2.31662e-10
1.62506e-10
-2.21884e-10
1.14782e-10
-2.0631e-10
-3.84076e-10
9.705e-11
9.24307e-10
-5.85109e-10
-3.21459e-10
3.15151e-11
1.15043e-09
-7.21608e-10
-3.63282e-10
-1.83592e-11
9.55071e-10
-5.79002e-10
-3.26196e-10
-7.54522e-11
-1.79137e-10
-3.4012e-10
-2.42371e-10
-5.64136e-11
-2.80245e-10
-1.02968e-10
-2.11437e-10
-3.71219e-10
-2.27346e-10
-5.08739e-12
-1.75428e-10
-3.02214e-10
-3.73479e-10
-6.66304e-11
-3.02312e-10
-4.57208e-10
-6.74107e-11
-2.24095e-10
-3.74139e-10
-7.11789e-11
-9.68747e-11
1.16765e-10
-4.92023e-11
-1.94774e-10
3.40778e-10
1.83437e-10
-3.3943e-10
-2.81659e-10
-3.69671e-10
-1.34611e-10
7.08317e-10
-8.09124e-10
-4.22241e-10
-2.44524e-09
1.81314e-09
2.02749e-09
-1.10777e-09
-7.29994e-10
2.61926e-09
-3.98028e-09
-1.75796e-09
3.42674e-09
-9.82667e-10
3.37463e-09
-5.21301e-09
-2.38296e-09
4.47402e-09
-9.86422e-10
3.58371e-09
-5.55321e-09
-2.67415e-09
4.6474e-09
-9.28548e-10
3.2039e-09
-2.48381e-09
-4.84259e-09
4.06461e-09
-6.89024e-10
2.37125e-09
-3.58985e-09
-1.87723e-09
2.8563e-09
-4.11723e-10
-1.28962e-09
1.36938e-09
-2.16214e-09
1.80507e-09
-9.44498e-11
-5.1866e-10
-1.03101e-09
5.77485e-10
6.54915e-10
2.41743e-10
-1.52517e-10
-4.05915e-10
2.22244e-10
1.0978e-10
-2.0538e-11
1.10269e-10
4.22322e-11
3.31216e-10
-1.96314e-10
1.43314e-10
-1.6844e-10
1.62089e-10
-6.63911e-11
2.10369e-10
2.51566e-11
3.40311e-10
-2.89875e-10
3.74222e-10
-2.6258e-10
2.26995e-10
-8.03694e-11
1.39917e-10
5.37706e-11
1.15959e-10
-2.64689e-10
6.36087e-10
-2.60382e-10
5.99872e-11
-5.68677e-10
1.14079e-09
-5.16159e-10
4.74415e-11
1.445e-09
-7.42225e-10
-6.9025e-10
1.46755e-09
-7.42301e-10
-7.18148e-10
-7.06866e-11
5.60665e-10
8.78244e-10
-6.76246e-11
5.63723e-10
5.23196e-10
9.41005e-12
3.32281e-10
-6.16575e-11
-5.00529e-10
6.82978e-10
-2.03141e-10
-2.57629e-10
-2.83881e-10
1.37163e-10
2.06656e-10
2.77923e-10
-4.35096e-10
3.94676e-11
4.45483e-10
8.71606e-11
-5.43134e-10
2.88424e-10
-2.41294e-10
-4.27621e-10
-5.81195e-10
4.77811e-11
7.25042e-10
-4.10635e-10
-1.05344e-09
1.57862e-10
-1.24899e-09
2.08929e-10
-1.17886e-09
-8.48726e-10
-3.38218e-11
-1.22248e-10
-2.78133e-10
-2.56345e-10
-5.22168e-10
-3.57117e-10
-1.60967e-10
-3.14708e-10
-3.39926e-10
-2.16059e-10
-2.70184e-10
3.1958e-10
-1.30759e-10
-3.52812e-10
-1.75928e-10
1.82826e-11
1.35654e-09
1.67352e-10
-1.20518e-09
6.38605e-10
-1.456e-09
1.5417e-09
3.88169e-09
5.75001e-10
-2.95909e-09
-2.40066e-09
1.85099e-09
8.79452e-11
2.95312e-09
-2.16987e-09
6.96685e-10
-3.39321e-09
3.95588e-09
6.05781e-10
-4.81018e-09
-3.49676e-09
4.63757e-09
8.91306e-10
7.2244e-10
-2.97847e-09
3.08148e-09
-5.16451e-09
6.38115e-09
7.56981e-10
-4.33264e-09
-3.3867e-09
4.81561e-09
3.58181e-10
-1.669e-09
3.0864e-10
-2.36503e-09
-4.22759e-10
9.75715e-11
-1.46052e-09
-1.70363e-11
6.79791e-11
5.60783e-10
4.29251e-10
-6.68674e-11
1.69108e-09
-1.39539e-09
2.22251e-09
-1.93333e-09
-2.30801e-09
4.12703e-09
1.75657e-10
-5.9914e-10
5.77243e-09
4.24307e-10
-4.18133e-09
-3.72425e-09
-4.14063e-09
-3.41301e-09
-6.16951e-10
-2.96952e-09
4.73321e-10
-2.48798e-09
-1.77349e-09
-2.10451e-09
-5.6173e-10
1.21796e-10
-1.37739e-09
-8.59877e-10
-3.07815e-10
4.137e-10
-1.78337e-10
-7.01387e-10
-3.93845e-10
1.90198e-10
1.21455e-10
-2.05768e-10
5.28637e-11
-1.80112e-10
-2.67654e-10
1.52789e-12
-4.36019e-10
-2.34244e-10
-1.34973e-10
-2.6304e-10
-1.79453e-10
-2.98686e-10
-2.16565e-10
1.71367e-11
3.63143e-10
-1.75891e-10
-4.58755e-10
7.01544e-10
-3.65579e-10
-1.66597e-10
-4.01663e-10
-8.06831e-11
4.73052e-10
-4.6816e-11
4.32634e-10
-1.8787e-10
-3.64544e-10
-2.07465e-10
-3.99682e-11
-1.7287e-10
-2.46705e-10
-3.34158e-10
-8.38144e-11
-2.0612e-10
-3.42514e-10
-7.221e-11
-1.44508e-10
-2.04801e-10
-5.15826e-11
-3.89504e-10
-3.4538e-10
2.50944e-10
-2.69532e-10
-5.83241e-10
-3.67527e-11
5.00028e-10
-9.38937e-11
1.18934e-10
-2.33851e-10
-6.07138e-11
2.55054e-10
-2.69145e-10
-2.04768e-10
1.24964e-10
4.358e-10
2.652e-10
-3.27018e-10
-2.92963e-10
2.35057e-10
1.46778e-10
-1.98021e-10
2.66213e-10
-9.59471e-11
2.61379e-10
-4.27084e-10
-2.47362e-10
2.15053e-10
1.58937e-10
6.69557e-11
7.20298e-11
-3.65427e-11
-1.01617e-10
-2.16558e-10
-1.14456e-11
-1.11803e-11
-9.4786e-11
-8.63977e-10
8.03073e-10
-1.08255e-10
3.30835e-10
-1.42328e-09
-1.16409e-10
1.22234e-09
3.26176e-10
-4.3932e-10
-3.16477e-11
6.82745e-10
-3.71808e-11
4.79662e-10
-4.76753e-11
2.04968e-10
1.03722e-09
-4.7032e-11
-5.09823e-10
-4.95709e-11
3.24542e-10
-7.39956e-11
-1.06432e-09
3.46524e-10
-4.2885e-11
-8.60572e-10
2.60792e-10
-5.2582e-10
1.37889e-10
8.1091e-11
-2.01292e-10
-1.77789e-10
-2.27842e-10
5.87224e-11
-4.24459e-10
-4.13751e-10
-5.28495e-10
-5.24139e-10
-5.25255e-11
-7.68756e-10
2.45114e-10
-3.16529e-11
-6.47201e-10
2.01874e-10
6.63862e-11
-4.16705e-10
1.17382e-10
1.26766e-10
-3.01533e-10
6.33678e-11
-4.41594e-10
2.121e-10
-1.9241e-10
-2.6087e-10
-2.89859e-10
8.3424e-11
-2.73906e-10
-6.30657e-11
6.11392e-11
-2.58721e-10
1.25297e-10
-1.18142e-10
-2.19425e-10
-1.9507e-10
-2.91124e-10
-3.37359e-11
5.41966e-11
2.69293e-10
-2.28821e-10
-4.04946e-10
7.33494e-11
2.9091e-10
-4.64851e-10
3.73239e-11
3.94057e-10
-4.08982e-10
2.52609e-10
5.32218e-11
2.71309e-10
1.97143e-10
1.47853e-10
1.33062e-10
5.50411e-11
1.93477e-10
5.1244e-10
-2.25336e-10
-1.07327e-11
3.7234e-10
3.14462e-10
3.6024e-11
1.79095e-10
1.78632e-10
4.56307e-11
-3.10143e-11
4.73843e-10
3.28921e-10
-3.15179e-10
-3.08502e-10
1.84318e-10
4.24632e-10
-2.08474e-11
-1.14236e-10
3.00488e-10
4.87414e-10
-2.8918e-10
-3.14433e-10
2.29162e-10
-1.29309e-10
-2.49942e-12
3.93797e-10
8.36988e-11
2.3909e-10
-2.15018e-10
-3.69431e-10
-5.90117e-10
4.81804e-11
7.06329e-10
-8.74362e-10
2.56199e-12
-1.18327e-09
-1.25654e-11
-4.47078e-10
-4.03722e-10
-6.10606e-10
2.05637e-10
-2.52394e-10
9.87215e-11
-4.99043e-10
-2.62738e-10
5.10633e-11
-2.57677e-10
9.28267e-11
-3.13953e-10
-1.3816e-10
6.51197e-11
-3.15414e-10
-5.43272e-10
-3.46319e-10
3.98622e-10
4.13909e-10
-2.20654e-10
-4.502e-10
-2.86322e-10
-4.45475e-10
1.8304e-10
1.65302e-10
-3.52e-10
-3.10036e-10
5.12477e-11
-2.79201e-10
-1.90039e-10
1.14357e-10
-7.55539e-11
-2.09203e-10
-1.08799e-10
7.47639e-11
-3.66942e-10
-2.94852e-10
5.11965e-11
-5.9054e-10
-2.65843e-10
8.79955e-10
2.30399e-11
-6.5023e-10
-3.27939e-10
1.00633e-09
-1.15076e-11
-4.72326e-10
7.82307e-10
-2.75434e-10
-6.62819e-11
-1.45936e-10
-2.58041e-10
-3.26575e-10
4.57549e-12
-1.45948e-10
-2.19782e-10
-5.364e-10
-6.33046e-11
4.92914e-10
-6.16474e-11
-3.52006e-10
-2.38523e-10
4.32393e-10
-1.48183e-10
-1.75392e-10
-7.22352e-11
-1.68115e-10
-2.48282e-10
-7.43017e-11
-1.42299e-10
-1.65111e-10
-6.55078e-11
-4.34214e-10
-2.77777e-10
2.24304e-10
-2.93789e-10
-6.00957e-10
-1.22701e-10
-1.52318e-10
-2.86056e-10
-8.92607e-11
-2.4196e-10
-3.47665e-10
1.68162e-10
-1.15541e-10
2.47708e-10
-3.43106e-10
-3.10148e-11
2.55622e-10
-3.36362e-10
-1.81831e-10
1.47029e-10
1.81828e-10
5.98273e-11
7.34483e-11
-5.94819e-11
-1.11611e-10
-2.76865e-10
1.43213e-10
-8.83842e-12
-4.76686e-11
-8.52628e-10
6.88067e-10
-1.93233e-10
8.47897e-10
-2.30347e-10
-1.50186e-09
1.02988e-09
3.07687e-10
-4.01635e-10
-1.58759e-10
1.4161e-10
1.14443e-10
7.61244e-11
-2.44893e-11
-8.2071e-11
-2.03652e-10
-1.19909e-11
-7.1773e-11
-6.433e-11
7.12952e-10
-7.76628e-11
2.64894e-10
-7.17084e-11
-1.15246e-09
9.72631e-10
2.4722e-10
-3.33061e-10
-1.63056e-11
5.21912e-10
-2.17921e-11
3.80735e-10
-4.39677e-11
1.535e-10
-4.39652e-11
-3.8124e-10
-5.88871e-11
-3.18215e-10
-3.14069e-10
-1.44432e-10
-1.5612e-10
-1.75049e-10
1.23899e-10
-2.50662e-10
-6.19092e-11
4.42453e-11
-3.92144e-10
1.92113e-10
-1.63825e-10
-2.31177e-10
-2.47819e-10
1.11882e-10
-2.48437e-10
-7.68431e-11
4.95741e-11
-2.88768e-10
1.47491e-10
-1.46753e-10
-1.70098e-10
-2.20367e-10
-2.65307e-10
-1.22041e-10
1.17697e-11
1.44318e-10
-9.81029e-11
-1.38716e-10
-1.72806e-10
1.27484e-10
-1.67623e-10
-2.20486e-10
-1.64974e-11
-1.11662e-10
-2.09207e-10
3.51485e-10
-1.28317e-10
-5.05181e-11
-1.89149e-10
2.24435e-10
-3.62647e-10
8.07109e-11
2.25065e-10
-1.97055e-10
1.62729e-10
3.36872e-11
2.25853e-10
1.70769e-10
8.10517e-11
2.53509e-10
5.75281e-11
1.11959e-10
6.9821e-10
-4.05296e-10
-1.2607e-10
8.66568e-11
7.06697e-10
4.23225e-10
1.15482e-10
-5.47194e-10
5.38208e-10
4.27069e-10
5.58872e-11
4.01686e-10
6.27641e-11
-5.47484e-10
7.58802e-10
-1.39907e-09
-6.30815e-10
7.86391e-10
6.47449e-10
-1.35377e-09
9.53244e-10
-9.52989e-10
8.14631e-10
-8.90163e-10
-8.61682e-10
6.21481e-10
-8.47252e-10
2.44872e-10
-6.26265e-11
1.52376e-09
-1.20405e-09
-1.60575e-09
5.01417e-10
5.42909e-10
-4.97745e-10
1.56978e-10
-1.08557e-09
5.50847e-10
-1.97042e-09
-1.03929e-09
5.80945e-10
-2.2263e-09
-1.47802e-09
6.4532e-10
-6.36425e-10
1.16211e-09
-2.14699e-09
7.80767e-10
-1.38579e-09
1.73146e-10
-7.32515e-10
-4.24816e-10
4.32891e-10
-2.73842e-10
-3.68014e-10
8.24791e-11
2.2507e-10
-3.15699e-10
-3.61358e-10
8.39586e-11
-3.27328e-10
-2.49796e-10
2.83358e-10
-1.59362e-10
-2.54282e-10
-1.97036e-10
-1.37747e-10
3.55115e-11
-5.07469e-10
-1.65796e-10
3.26315e-10
2.76015e-10
-9.85724e-11
-2.73252e-10
-4.11659e-10
1.30882e-10
9.08555e-11
-1.11519e-10
5.97097e-11
-1.23996e-10
-1.71769e-10
3.82085e-11
-3.56897e-10
-2.12137e-10
3.45366e-12
-3.82171e-10
-2.33301e-10
-1.11707e-10
-2.03536e-10
-1.53625e-10
-2.02743e-10
-1.67758e-10
-1.09484e-11
2.69743e-10
-6.2452e-11
-3.34758e-10
4.14538e-10
-2.20071e-10
-1.23792e-10
-3.30298e-10
-1.44764e-10
-4.70166e-11
-1.62396e-10
-2.66385e-10
-9.03216e-11
-1.74017e-11
-1.14685e-10
-9.84734e-11
-2.0122e-10
-3.89099e-11
-8.72924e-11
-1.40651e-10
-3.56404e-11
-4.64747e-10
-9.06994e-11
1.9037e-10
-2.94139e-10
-6.78819e-10
-9.27373e-11
-1.00869e-10
-3.94978e-10
-8.43415e-11
-2.32746e-10
-3.63399e-10
1.4761e-10
-1.63562e-10
-3.1586e-10
-9.64273e-11
-2.09872e-10
-4.58671e-10
1.68621e-10
-1.353e-10
2.49649e-10
-2.47143e-10
-7.70754e-11
2.02427e-10
-4.12672e-10
-3.10898e-11
1.06037e-10
1.47789e-10
4.29282e-11
6.05217e-11
-4.881e-11
-1.2551e-10
-2.62814e-10
1.34472e-10
-1.47588e-11
-4.38131e-11
5.42503e-10
-7.15719e-10
-1.38117e-10
6.00178e-10
7.72177e-10
-1.20785e-09
-7.01905e-11
2.20572e-10
-4.01217e-10
-6.27434e-12
9.61891e-11
7.35377e-11
6.89414e-11
-1.80939e-11
-8.07921e-11
-1.53126e-10
-2.95757e-12
-3.15395e-11
-4.14407e-11
5.25917e-10
-9.07338e-11
1.68649e-10
6.28343e-10
-7.06336e-10
-4.13431e-11
1.42995e-10
-2.4839e-10
-3.43047e-12
3.29942e-10
-2.12598e-11
2.31789e-10
-1.30605e-11
9.491e-11
4.85145e-10
-3.63457e-11
-2.38806e-10
-2.44011e-11
1.47366e-10
-3.38286e-10
9.58631e-11
-1.08997e-10
-1.22432e-10
-1.43213e-10
1.26292e-10
-2.03985e-10
-5.52698e-11
2.3971e-11
-3.78775e-10
1.97045e-10
-5.73826e-11
-2.68695e-10
-2.56693e-10
-5.48193e-11
-8.60638e-11
-8.65968e-11
-1.5772e-10
-2.71066e-11
7.96578e-12
-6.353e-11
-9.6856e-11
-9.54385e-11
5.81948e-11
-1.48633e-10
-2.26302e-12
2.91694e-11
8.9526e-11
-2.18391e-10
4.83417e-11
9.71722e-11
-2.31549e-10
5.62812e-11
-1.80666e-10
3.786e-11
1.0562e-10
-1.24913e-10
-2.41527e-10
8.01558e-11
1.3116e-10
5.35008e-11
-1.15808e-10
3.67696e-11
-5.46994e-11
-2.27308e-10
1.97219e-10
-1.19278e-10
-7.91325e-11
1.20543e-10
2.99629e-11
-1.50354e-10
2.22837e-10
2.26451e-10
-1.3892e-10
-1.89818e-10
2.31889e-10
-1.1301e-10
7.00751e-11
3.38766e-11
-2.8912e-10
4.59347e-11
2.81849e-10
-1.81785e-10
-1.82577e-10
-7.64509e-10
-6.25235e-10
5.55698e-10
-7.52766e-10
-6.43413e-10
4.83576e-10
-6.5354e-10
-5.92381e-10
3.84197e-10
-3.55868e-11
4.71887e-11
-2.74497e-10
-5.14992e-10
1.2433e-10
5.38525e-11
-1.43171e-10
-9.6632e-11
8.26038e-11
-1.7138e-10
2.51808e-10
4.36741e-10
-4.0264e-10
-2.03305e-10
1.66746e-10
1.03569e-10
1.37558e-10
-1.56071e-10
1.96051e-10
2.94431e-10
-8.67231e-11
8.78757e-10
9.58902e-11
-7.33082e-10
1.1422e-09
4.64844e-10
-8.79398e-10
1.35489e-09
-1.02147e-09
6.42932e-10
7.074e-10
1.43935e-09
-3.00456e-09
8.46988e-10
-2.02002e-09
3.44564e-09
-1.47397e-09
6.96994e-10
2.0491e-09
-9.39216e-10
-1.06119e-09
3.87625e-10
-8.26689e-10
1.40486e-10
-1.8417e-09
2.40266e-09
4.82784e-10
-1.40557e-09
-1.18394e-09
4.59008e-10
-1.29413e-09
1.09187e-10
-4.03656e-10
1.18354e-10
-9.04288e-10
7.78167e-11
-2.42726e-10
9.23329e-11
-3.74089e-10
5.61895e-10
-2.02329e-10
6.70903e-11
-5.1068e-10
7.91986e-10
-2.56063e-10
3.0002e-11
-5.13284e-10
8.10253e-10
-2.59882e-10
5.42739e-12
-3.59357e-10
5.79815e-10
-1.95892e-10
-4.81872e-11
-9.12281e-11
-1.89915e-10
-2.50774e-10
-5.9375e-12
-1.21777e-10
-3.56571e-10
-3.68417e-10
1.99644e-11
4.54243e-10
-3.89677e-10
-6.45556e-10
1.91025e-11
6.5956e-10
-3.4076e-10
-7.99661e-10
7.1465e-10
3.60938e-11
-2.80497e-10
-7.08243e-10
-3.08354e-11
-1.54753e-10
-4.46022e-10
-7.46931e-11
-5.05083e-11
1.19377e-10
-3.8198e-11
-1.85419e-10
2.32391e-10
6.50227e-11
-2.38985e-10
-1.08939e-10
-3.27491e-10
-3.49712e-11
4.54865e-10
-7.20546e-10
-1.98845e-10
-5.26614e-10
1.05756e-09
1.56788e-09
-1.93496e-09
-6.23862e-10
-9.28224e-10
1.41269e-09
2.73583e-09
-2.79529e-09
-9.09743e-10
2.05317e-09
3.00522e-09
-3.61453e-09
-1.15799e-09
-1.17444e-09
2.36104e-09
-3.66371e-09
3.06174e-09
-1.49437e-09
-1.15768e-09
2.2867e-09
-3.37678e-09
2.67227e-09
-1.59896e-09
-9.57614e-10
-2.71134e-09
1.82041e-09
2.02619e-09
-1.33532e-09
-6.34344e-10
1.17946e-09
-1.89924e-09
1.32229e-09
-9.25788e-10
-4.57675e-10
7.97386e-10
-1.07832e-09
6.60715e-10
-5.56462e-10
-4.36534e-11
1.32401e-10
2.14482e-10
-2.04208e-10
-5.56683e-10
1.16578e-10
-4.053e-11
-1.62866e-10
4.31617e-11
2.43711e-10
-6.60227e-11
7.12896e-11
1.10344e-10
-7.1391e-11
5.61286e-11
1.23346e-10
-3.1478e-10
8.33906e-11
-2.97342e-10
6.42343e-11
-4.31996e-11
-4.4055e-11
-1.3539e-10
-7.47e-11
1.93869e-10
-5.62878e-11
-4.67026e-11
-1.34073e-10
1.18038e-10
-2.59666e-10
9.39687e-11
6.32812e-11
4.81671e-11
-1.09218e-10
-1.31923e-10
-6.72363e-11
5.17495e-11
-2.06104e-11
-3.1967e-11
-1.31096e-10
1.92043e-10
3.60407e-10
-3.54452e-10
-1.4625e-10
1.82095e-10
1.60975e-10
-2.4592e-10
9.48901e-11
1.12373e-10
-2.19438e-10
-1.34604e-10
2.74983e-10
6.09999e-10
-5.30535e-10
-2.42077e-10
1.92451e-10
1.33693e-10
9.774e-11
-1.48904e-10
4.72709e-11
-1.09933e-10
-1.77732e-10
3.75652e-11
-3.21577e-10
-1.79395e-10
3.46299e-12
-3.0128e-10
-1.77901e-10
-8.20411e-11
-1.57228e-10
-1.16624e-10
-1.36278e-10
-1.40325e-10
-1.65038e-12
1.96211e-10
-4.7422e-11
3.17909e-10
-1.34182e-10
-2.72585e-10
-2.26279e-10
-3.09379e-11
-1.58627e-10
-3.2597e-10
-4.3245e-10
-1.13421e-10
-3.46687e-10
-6.22459e-10
-1.56484e-10
-2.62092e-10
-6.31136e-10
-1.61699e-10
-1.35743e-10
-4.56e-10
-1.16367e-10
-6.48226e-11
-2.10759e-10
-4.55766e-11
-1.02009e-10
-2.79495e-10
7.76945e-11
-4.46571e-11
2.48145e-10
-3.00953e-10
-4.54139e-12
2.44344e-10
-2.68602e-10
-1.01612e-10
8.12114e-11
1.95369e-10
2.46036e-11
2.19766e-11
2.39338e-12
-1.67435e-10
-3.43012e-10
-3.624e-12
4.07952e-11
-8.92048e-10
-1.41143e-10
-3.11893e-10
1.21796e-09
-1.65235e-09
-1.51461e-10
-3.99955e-10
-7.60824e-11
1.54514e-10
-1.946e-10
-3.52907e-11
1.56072e-10
-2.875e-10
-1.37878e-11
6.91303e-11
4.36121e-10
1.55517e-10
-2.81057e-10
-1.48596e-10
1.52413e-10
-6.00182e-11
1.0233e-10
-3.53872e-11
9.01645e-11
-1.94916e-10
-1.39993e-11
5.87332e-11
3.63908e-10
1.84656e-12
-1.73264e-10
4.77453e-12
1.04482e-10
2.08021e-10
-3.3051e-10
-1.11894e-11
1.38459e-10
8.44446e-11
4.75358e-11
7.26084e-11
2.63128e-10
-8.35301e-11
-1.16419e-10
7.23702e-11
6.53075e-10
-7.81163e-10
8.12292e-11
-2.16561e-10
1.3665e-09
2.8816e-10
-1.75669e-09
9.71678e-10
7.97349e-10
-1.0151e-09
-2.49749e-10
-1.83592e-09
4.95708e-10
1.09771e-09
-7.61784e-10
8.07736e-10
-1.2731e-09
4.54681e-10
-6.77738e-10
8.09757e-10
-1.47696e-09
4.81248e-10
-1.27458e-09
4.80554e-10
1.03176e-09
-1.37013e-09
5.04656e-10
-9.71803e-10
-3.77582e-10
-1.30237e-09
5.11996e-10
-7.94566e-10
-4.15878e-10
-2.31363e-10
-4.15731e-10
-3.01327e-10
2.82105e-10
-3.07536e-11
-2.21319e-10
-3.071e-10
1.22823e-10
-8.50762e-11
-8.68746e-11
-2.82138e-10
-1.5535e-10
1.81037e-10
-6.85546e-11
-3.3205e-10
-6.25627e-11
1.64089e-10