/*--------------------------------*- C++ -*----------------------------------*\
| =========                 |                                                 |
| \\      /  F ield         | OpenFOAM: The Open Source CFD Toolbox           |
|  \\    /   O peration     | Version:  5.0                                   |
|   \\  /    A nd           | Web:      www.OpenFOAM.org                      |
|    \\/     M anipulation  |                                                 |
\*---------------------------------------------------------------------------*/
FoamFile
{
    version     2.0;
    format      ascii;
    class       volScalarField;
    location    "60";
    object      pRest;
}
// * * * * * * * * * * * * * * * * * * * * * * * * * * * * * * * * * * * * * //

dimensions      [1 -1 -2 0 0 0 0];

internalField   nonuniform List<scalar> 
36178
(
8228.03
8229.87
8230.32
8229.44
8226.42
8226.67
8228.38
8230.08
8232.03
8234.07
8234.5
8233.58
8233.32
8230.22
8229.45
8226.21
8225.52
8227.67
8227.86
8227.82
8227.72
8228.59
8230.21
8232.08
8234.02
8235.62
8236.97
8237.06
8236.76
8236.03
8236.14
8235.34
8235.46
8233.11
8230.13
8229.4
8226.24
8225.56
8225.68
8227.85
8229.18
8227.82
8228.21
8231.41
8231.43
8231.49
8231.54
8232.16
8234.13
8235.84
8236.77
8237.83
8238.66
8238.65
8238.44
8237.93
8237.94
8237.68
8237.75
8236.05
8236
8234.66
8233.11
8230.03
8229.23
8226.29
8226.03
8227.87
8226.55
8227.91
8228.27
8228.44
8228.7
8228.29
8228.06
8229.95
8229.83
8229.69
8229.66
8229.74
8230.2
8233.31
8231.73
8232.15
8235.21
8235.2
8235.27
8235.47
8235.89
8236.91
8238
8238.24
8238.91
8238.96
8238.54
8237.91
8238.4
8237.76
8237.74
8237.72
8237.81
8238.03
8238.07
8237.34
8235.81
8234.3
8233.1
8231.01
8229.55
8228.26
8227.13
8227.89
8229.89
8232.07
8234.21
8236.23
8235.54
8236.3
8237.97
8237.37
8236.88
8236.87
8236.9
8237.26
8237.76
8237.96
8238.64
8238.94
8239.47
8239.87
8239.92
8239.65
8239.33
8239.78
8239.76
8239.68
8239.27
8239.29
8239.1
8239.19
8237.95
8238.02
8237.67
8236.62
8236.73
8234.8
8234.05
8231.99
8231.9
8234.11
8235.95
8237.29
8238.13
8238.17
8239.13
8238.74
8238.66
8238.58
8238.52
8238.57
8238.87
8239.36
8239.68
8239.86
8240.29
8240.63
8240.67
8240.48
8240.23
8240.6
8240.58
8240.57
8240.24
8240.23
8240.15
8240.2
8239.3
8239.33
8239.17
8239.2
8238.53
8238.08
8237.37
8237.13
8238.09
8238.94
8238.88
8239.33
8238.7
8239.21
8239.84
8239.62
8239.57
8239.27
8238.72
8238.66
8237.94
8238.05
8238.73
8239.32
8239.78
8239.93
8240.65
8240.3
8240.04
8240.11
8240.19
8240.26
8240.57
8240.69
8240.94
8241.04
8241.33
8241.55
8241.73
8241.74
8241.64
8241.27
8241.14
8241.24
8240.97
8240.7
8240.39
8240.45
8240.12
8239.82
8239.89
8239.74
8239.41
8239.32
8239.26
8239.17
8239.25
8239.31
8239.26
8239.68
8239.76
8240.21
8240.34
8240.98
8240.96
8240.96
8241
8241.15
8241.32
8241.47
8241.66
8241.83
8241.96
8242.13
8242.16
8242.07
8241.89
8242.07
8242.13
8242.08
8241.63
8241.59
8241.65
8241.46
8241.18
8241.17
8241.17
8240.92
8240.89
8240.88
8240.91
8240.23
8240.24
8240.2
8240.21
8239.39
8239.45
8238.8
8239.42
8239.62
8239.13
8239.67
8240.06
8239.76
8240.19
8240.55
8241.14
8240.76
8241.17
8241.07
8241.21
8241.72
8241.51
8241.43
8241.4
8241.42
8241.52
8241.67
8241.74
8241.88
8241.92
8242.09
8242.22
8242.36
8242.35
8242.47
8242.59
8242.61
8242.57
8242.32
8242.47
8242.43
8242.45
8242.12
8242.08
8241.67
8241.42
8241.39
8241.4
8241.42
8241.4
8241.43
8241.39
8240.87
8240.88
8240.91
8240.92
8240.27
8240.23
8239.87
8239.63
8240.23
8240.38
8240.11
8240.47
8240.94
8240.51
8240.36
8240.82
8241.22
8241.23
8241.56
8241.42
8241.77
8241.94
8242.27
8242.11
8242.01
8241.99
8241.98
8241.96
8241.97
8242.03
8242.13
8242.2
8242.29
8242.39
8242.48
8242.6
8242.63
8242.58
8242.64
8242.62
8242.64
8242.64
8242.65
8242.67
8242.7
8242.75
8242.79
8242.82
8242.68
8242.66
8242.46
8242.4
8242.18
8242.14
8242.11
8242.09
8242.08
8241.7
8241.7
8241.43
8241.37
8241.37
8240.88
8240.93
8240.69
8240.56
8240.73
8241.08
8240.79
8241.15
8241.55
8241.6
8241.82
8242.07
8241.9
8241.82
8241.54
8241.4
8241.13
8240.74
8240.25
8240.66
8241.05
8240.98
8240.61
8241.1
8241.46
8241.51
8241.53
8241.51
8241.46
8241.46
8241.04
8241.34
8241.37
8241.7
8241.79
8242.02
8242.11
8242.41
8242.3
8242.29
8242.28
8242.29
8242.3
8242.38
8242.4
8242.48
8242.49
8242.57
8242.65
8242.75
8242.77
8242.86
8242.91
8242.93
8242.91
8242.73
8242.86
8242.84
8242.74
8242.73
8242.74
8242.74
8242.76
8242.74
8242.75
8242.45
8242.45
8242.09
8242.1
8242.12
8242.15
8242.49
8242.47
8242.46
8242.47
8242.49
8242.52
8242.54
8242.46
8242.7
8242.73
8242.69
8242.86
8242.88
8242.97
8242.91
8242.88
8242.75
8242.59
8242.6
8242.34
8242.11
8241.98
8241.73
8241.67
8241.41
8241.25
8241.23
8241.29
8241.52
8241.36
8241.69
8241.83
8241.65
8241.91
8242.15
8242.16
8242.46
8242.28
8242.46
8242.42
8242.61
8242.53
8242.55
8242.55
8242.55
8242.55
8242.57
8242.66
8242.69
8242.69
8242.75
8242.83
8242.86
8242.96
8243.02
8243.03
8243.12
8243.1
8243.03
8243.02
8243.03
8243.04
8243.02
8243.04
8242.95
8242.98
8242.95
8242.97
8242.97
8242.95
8242.98
8242.74
8242.76
8242.77
8242.79
8242.81
8242.72
8242.92
8242.93
8242.87
8243
8243.01
8243.09
8243.06
8243.03
8243.02
8242.92
8242.89
8242.79
8242.64
8242.61
8242.38
8242.26
8241.95
8241.8
8241.93
8241.79
8241.67
8241.86
8242.08
8242.27
8242.33
8242.11
8242.02
8242.19
8242.39
8242.55
8242.68
8242.66
8242.46
8242.62
8242.6
8242.71
8242.61
8242.6
8242.81
8242.71
8242.7
8242.68
8242.68
8242.69
8242.69
8242.76
8242.75
8242.81
8242.84
8242.9
8242.98
8242.94
8243.05
8243.11
8243.09
8243.17
8243.14
8243.2
8243.2
8243.13
8243.16
8243.15
8243.15
8243.14
8243.16
8243.07
8243.12
8243.1
8243.1
8243.09
8243.09
8243.11
8242.95
8242.99
8242.77
8242.78
8242.99
8242.99
8242.91
8243.06
8243.06
8243.08
8243.13
8243.12
8243.1
8243.07
8243.03
8243.11
8243.05
8243.04
8243.05
8242.95
8242.93
8242.84
8242.74
8242.85
8242.77
8242.77
8242.87
8242.95
8243.02
8243.04
8243.02
8243.02
8242.93
8242.85
8242.81
8242.82
8242.74
8242.62
8242.46
8242.37
8242.26
8242.46
8242.59
8242.68
8242.82
8242.89
8242.9
8242.89
8242.88
8242.88
8242.88
8242.88
8242.91
8243
8243.07
8243.12
8243.14
8243.19
8243.25
8243.26
8243.24
8243.28
8243.25
8243.25
8243.23
8243.2
8243.18
8243.17
8243.17
8243.17
8243.19
8243.16
8243.19
8243.15
8243.13
8243.12
8243.19
8243.18
8243.15
8243.12
8243.11
8243.17
8243.18
8243.12
8243.07
8243.09
8243.11
8243.03
8242.94
8243.02
8242.99
8242.99
8243
8243.03
8243.09
8243.09
8243.15
8243.22
8243.28
8243.34
8243.4
8243.4
8243.43
8243.4
8243.28
8243.27
8243.29
8243.31
8243.27
8243.25
8243.29
8243.26
8243.28
8243.17
8243.2
8243.17
8243.21
8243.14
8243.13
8243.08
8243.1
8242.96
8242.99
8242.89
8242.93
8242.83
8242.87
8242.97
8242.91
8242.85
8242.93
8243
8243.07
8243.11
8243.16
8243.19
8243.21
8243.28
8243.25
8243.25
8243.21
8243.23
8243.19
8243.21
8243.23
8243.23
8243.23
8243.22
8243.29
8243.3
8243.38
8243.47
8243.52
8243.55
8243.54
8243.57
8243.51
8243.52
8243.46
8243.37
8243.38
8243.42
8243.4
8243.34
8243.32
8243.36
8243.31
8243.33
8243.24
8243.21
8243.17
8243.19
8243.18
8243.11
8243.14
8243.09
8243.04
8243.07
8243.14
8243.13
8243.11
8243.17
8243.15
8243.2
8243.16
8243.2
8243.21
8243.21
8243.16
8243.19
8243.18
8243.19
8243.17
8243.19
8243.21
8243.17
8243.24
8243.26
8243.31
8243.33
8243.32
8243.36
8243.4
8243.35
8243.24
8243.21
8243.26
8243.25
8243.34
8243.42
8243.39
8243.44
8243.48
8243.55
8243.63
8243.68
8243.7
8243.71
8243.76
8243.81
8243.86
8243.9
8243.91
8243.88
8243.86
8243.78
8243.72
8243.7
8243.7
8243.68
8243.62
8243.58
8243.66
8243.57
8243.54
8243.56
8243.46
8243.41
8243.42
8243.48
8243.44
8243.38
8243.38
8243.32
8243.29
8243.29
8243.27
8243.19
8243.16
8243.15
8243.18
8243.11
8243.14
8243.11
8243.12
8243.1
8243.07
8243.05
8243.08
8243.14
8243.19
8243.25
8243.26
8243.24
8243.27
8243.3
8243.35
8243.38
8243.43
8243.45
8243.53
8243.57
8243.63
8243.71
8243.78
8243.83
8243.9
8243.95
8243.95
8244
8243.96
8243.93
8243.87
8243.81
8243.74
8243.73
8243.64
8243.65
8243.66
8243.56
8243.56
8243.61
8243.53
8243.49
8243.54
8243.44
8243.39
8243.45
8243.5
8243.45
8243.41
8243.38
8243.41
8243.37
8243.32
8243.34
8243.24
8243.21
8243.25
8243.18
8243.17
8243.2
8243.16
8243.15
8243.17
8243.15
8243.14
8243.12
8243.15
8243.2
8243.2
8243.23
8243.21
8243.26
8243.29
8243.32
8243.35
8243.33
8243.41
8243.35
8243.41
8243.38
8243.45
8243.53
8243.55
8243.46
8243.48
8243.56
8243.58
8243.63
8243.67
8243.75
8243.82
8243.9
8243.97
8243.91
8243.95
8243.85
8243.87
8243.74
8243.68
8243.63
8243.67
8243.67
8243.71
8243.72
8243.75
8243.78
8243.76
8243.7
8243.63
8243.56
8243.49
8243.43
8243.39
8243.33
8243.32
8243.29
8243.25
8243.25
8243.23
8243.26
8243.22
8243.21
8243.19
8243.22
8243.25
8243.23
8243.24
8243.27
8243.24
8243.26
8243.27
8243.28
8243.35
8243.38
8243.39
8243.38
8243.48
8243.5
8243.58
8243.6
8243.53
8243.69
8243.74
8243.8
8243.84
8243.75
8243.74
8243.64
8243.53
8243.45
8243.43
8243.38
8243.39
8243.44
8243.46
8243.47
8243.69
8243.66
8243.67
8243.57
8243.59
8243.48
8243.53
8243.57
8243.46
8243.49
8243.52
8243.46
8243.43
8243.51
8243.4
8243.44
8243.4
8243.48
8243.37
8243.44
8243.33
8243.43
8243.35
8243.4
8243.29
8243.32
8243.31
8243.19
8243.24
8243.18
8243.17
8243.22
8243.17
8243.18
8243.19
8243.2
8243.19
8243.18
8243.19
8243.2
8243.25
8243.27
8243.2
8243.28
8243.3
8243.33
8243.34
8243.34
8243.26
8243.35
8243.28
8243.31
8243.37
8243.3
8243.39
8243.43
8243.39
8243.39
8243.42
8243.42
8243.4
8243.35
8243.32
8243.32
8243.32
8243.3
8243.31
8243.27
8243.33
8243.36
8243.34
8243.36
8243.29
8243.31
8243.33
8243.38
8243.32
8243.37
8243.39
8243.34
8243.38
8243.49
8243.5
8243.54
8243.54
8243.52
8243.49
8243.31
8243.13
8243.03
8242.97
8242.98
8243.05
8243.13
8243.22
8243.24
8243.35
8243.33
8243.51
8243.54
8243.49
8243.49
8243.49
8243.48
8243.5
8243.41
8243.49
8243.38
8243.44
8243.41
8243.49
8243.41
8243.43
8243.41
8243.56
8243.47
8243.51
8243.38
8243.53
8243.46
8243.51
8243.35
8243.4
8243.27
8243.26
8243.27
8243.27
8243.25
8243.25
8243.16
8243.18
8243.19
8243.22
8243.22
8243.19
8243.2
8243.26
8243.22
8243.31
8243.25
8243.25
8243.25
8243.24
8243.33
8243.35
8243.36
8243.35
8243.37
8243.27
8243.28
8243.35
8243.35
8243.28
8243.28
8243.32
8243.3
8243.32
8243.32
8243.28
8243.31
8243.39
8243.38
8243.29
8243.37
8243.32
8243.31
8243.43
8243.28
8243.34
8243.32
8243.31
8243.23
8243.27
8243.26
8243.28
8243.33
8243.32
8243.34
8243.34
8243.29
8243.42
8243.38
8243.62
8243.56
8243.6
8243.7
8243.81
8243.9
8244.01
8243.95
8243.98
8244
8243.99
8243.94
8243.92
8243.9
8243.89
8243.97
8243.97
8243.92
8243.93
8243.84
8243.91
8243.95
8243.96
8243.96
8243.91
8243.9
8244.11
8243.86
8243.85
8243.73
8243.62
8243.52
8243.42
8243.38
8243.34
8243.37
8243.4
8243.46
8243.46
8243.45
8243.7
8243.74
8243.81
8244
8244.1
8244.18
8244.1
8244.1
8244.17
8244.17
8244.12
8244.13
8244.12
8244.06
8244
8243.9
8243.94
8243.94
8243.97
8243.84
8243.91
8243.96
8244.01
8244.03
8244.23
8244.05
8244.07
8244.07
8244.09
8243.98
8243.87
8243.83
8243.65
8243.51
8243.65
8243.75
8243.84
8243.94
8243.99
8244.07
8244.17
8244.2
8244.37
8244.48
8244.62
8244.82
8245.06
8245.36
8245.7
8246.08
8246.49
8246.92
8247.35
8247.77
8248.15
8248.5
8248.82
8249.09
8249.31
8249.53
8249.67
8249.82
8249.95
8249.97
8249.79
8249.79
8249.68
8249.5
8249.47
8249.25
8249.03
8248.76
8248.72
8248.33
8247.9
8247.59
8247.13
8247.03
8246.52
8246.1
8245.66
8245.13
8245.07
8244.63
8244.43
8244.07
8244.07
8243.93
8243.75
8243.82
8243.79
8243.66
8243.78
8243.69
8243.73
8243.57
8243.62
8243.54
8243.55
8243.52
8243.34
8243.4
8243.39
8243.36
8243.25
8243.23
8243.21
8243.31
8243.27
8243.23
8243.31
8243.35
8243.37
8243.34
8243.37
8243.35
8243.36
8243.38
8243.25
8243.26
8243.4
8243.36
8243.41
8243.31
8243.3
8243.31
8243.29
8243.29
8243.29
8243.36
8243.26
8243.41
8243.34
8243.42
8243.31
8243.37
8243.4
8243.35
8243.26
8243.28
8243.34
8243.31
8243.49
8243.33
8243.34
8243.35
8243.35
8243.3
8243.28
8243.25
8243.24
8243.24
8243.26
8243.27
8243.28
8243.29
8243.31
8243.31
8243.3
8243.34
8243.32
8243.33
8243.32
8243.33
8243.33
8243.29
8243.33
8243.33
8243.25
8243.3
8243.31
8243.25
8243.19
8243.03
8243.26
8243.32
8243.42
8243.37
8243.3
8243.16
8242.93
8242.69
8242.42
8242.51
8242.46
8242.42
8242.62
8242.79
8243
8243.06
8243.05
8243.27
8243.22
8243.23
8243.34
8243.42
8243.34
8243.31
8243.38
8243.43
8243.3
8243.38
8243.47
8243.4
8243.43
8243.6
8243.49
8243.49
8243.73
8243.64
8243.67
8243.52
8243.71
8243.69
8243.7
8243.49
8243.52
8243.56
8243.58
8243.84
8243.81
8243.76
8243.74
8243.78
8243.79
8243.79
8243.82
8243.85
8243.77
8243.71
8243.88
8243.83
8243.91
8243.81
8243.98
8244.12
8244.13
8244.48
8244.67
8245.1
8245.19
8245.74
8246.11
8246.56
8247.01
8247.46
8247.5
8247.53
8247.99
8248.31
8248.72
8248.99
8249.03
8249.25
8249.46
8249.5
8249.49
8249.24
8249.26
8249.02
8248.72
8248.38
8247.9
8247.86
8247.43
8247.02
8246.59
8246.15
8245.74
8245.2
8245.17
8244.77
8244.53
8244.18
8244.2
8244.03
8244.07
8243.87
8243.93
8243.89
8243.94
8243.96
8243.86
8243.84
8243.85
8243.87
8243.99
8243.96
8243.91
8243.96
8243.97
8243.97
8244.03
8244.17
8244.4
8244.23
8244.18
8244.16
8244.28
8244.45
8244.64
8244.56
8244.87
8244.96
8245.17
8245.43
8245.74
8246.23
8246.65
8247.09
8247.49
8247.9
8247.93
8248.43
8248.75
8249.05
8249.29
8249.5
8249.49
8249.65
8249.68
8249.67
8249.69
8249.79
8249.93
8249.91
8249.91
8249.77
8249.78
8249.92
8249.92
8249.93
8249.78
8249.8
8249.67
8249.69
8249.53
8249.33
8249.09
8248.8
8248.44
8248.06
8247.68
8247.26
8246.88
8246.45
8246
8245.6
8245.26
8244.97
8244.74
8244.55
8244.63
8244.49
8244.77
8245.03
8245.3
8245.67
8246.03
8246.47
8246.84
8247.25
8247.5
8247.4
8247.81
8248.21
8248.6
8248.88
8249.16
8249.39
8249.57
8249.73
8249.86
8249.83
8249.95
8249.93
8250.01
8250.04
8250.01
8250.04
8250.01
8250
8250.05
8249.91
8249.93
8249.96
8249.82
8249.69
8249.54
8249.36
8249.05
8249.06
8248.78
8248.75
8248.44
8248.35
8248.06
8247.64
8247.51
8247.04
8246.61
8246.23
8246.08
8245.56
8245.22
8244.75
8244.66
8244.33
8243.96
8244.03
8243.84
8243.65
8243.75
8243.71
8243.59
8243.67
8243.62
8243.49
8243.56
8243.47
8243.41
8243.45
8243.42
8243.53
8243.48
8243.39
8243.52
8243.45
8243.44
8243.44
8243.44
8243.44
8243.48
8243.52
8243.5
8243.78
8243.8
8244.03
8244.07
8243.98
8244.14
8244.23
8244.23
8244.26
8244.27
8244.25
8244.24
8244.24
8244.2
8244.12
8244.03
8244.13
8244.22
8244.32
8244.4
8244.58
8244.78
8245.08
8244.93
8244.81
8244.87
8245.05
8245.05
8245
8245.11
8245.24
8245.59
8246.15
8246.54
8246.58
8247
8246.95
8247.1
8247.56
8247.93
8248.02
8248.33
8248.71
8248.79
8249
8249.13
8249.28
8249.51
8249.66
8249.82
8249.78
8249.84
8249.92
8249.95
8249.95
8249.97
8249.83
8249.73
8249.58
8249.4
8249.08
8249.14
8248.87
8248.62
8248.29
8247.92
8247.49
8247.02
8246.49
8246.06
8245.69
8245.37
8245.1
8244.86
8244.88
8244.7
8244.79
8244.8
8244.85
8244.8
8244.76
8244.74
8244.64
8244.64
8244.59
8244.9
8245.15
8245.43
8245.72
8246.24
8246.3
8246.3
8246.7
8247.06
8247.12
8247.51
8248.04
8248.12
8248.12
8247.91
8248.29
8248.59
8248.89
8249.05
8248.99
8249.26
8249.47
8249.62
8249.78
8249.9
8250.01
8249.97
8250.07
8250.04
8250.15
8250.12
8250.12
8250.11
8250.13
8250.11
8250.15
8250.16
8250.18
8250.09
8250.09
8249.97
8250
8249.87
8249.76
8249.6
8249.39
8249.2
8248.96
8248.74
8248.43
8248.13
8247.73
8247.3
8246.85
8246.43
8246.35
8246.09
8246.1
8246.13
8246.13
8245.99
8246.06
8246.05
8245.91
8245.79
8246.29
8246.42
8246.88
8246.77
8246.7
8247.1
8247.5
8247.91
8248.32
8248.64
8248.91
8249.19
8249.4
8249.58
8249.73
8249.87
8249.98
8250.08
8250.19
8250.27
8250.37
8250.45
8250.54
8250.66
8250.8
8250.81
8250.6
8250.59
8250.46
8250.41
8250.32
8250.33
8250.22
8250.25
8250.11
8250.2
8250.24
8250.1
8250.19
8250.23
8250.1
8250.13
8250.15
8250.17
8250.19
8250.21
8250.1
8250.04
8249.95
8249.86
8249.67
8249.77
8249.87
8249.98
8249.97
8250.02
8250.08
8250.18
8250.19
8250.17
8250.19
8250.25
8250.16
8250.1
8250
8249.88
8249.74
8249.58
8249.42
8249.25
8249.2
8249.2
8249.25
8249.31
8249.27
8249.37
8249.36
8249.38
8249.35
8249.32
8249.29
8249.26
8249.22
8249.19
8249.09
8248.97
8248.92
8249
8249.06
8249.1
8249.1
8249.34
8249.03
8249.11
8249.08
8249.05
8248.97
8248.91
8248.89
8248.92
8249.13
8249.34
8249.51
8249.68
8249.8
8249.92
8250.03
8250.1
8250.11
8250.14
8250.24
8250.28
8250.3
8250.28
8250.36
8250.23
8250.26
8250.3
8250.32
8250.39
8250.33
8250.32
8250.34
8250.38
8250.38
8250.4
8250.42
8250.42
8250.45
8250.42
8250.41
8250.39
8250.37
8250.36
8250.35
8250.36
8250.36
8250.26
8250.28
8250.25
8250.31
8250.33
8250.31
8250.34
8250.45
8250.29
8250.32
8250.3
8250.29
8250.26
8250.22
8250.19
8250.18
8250.24
8250.21
8250.16
8250.1
8250.14
8250.05
8250.07
8250.1
8250.14
8250.17
8250.21
8250.18
8250.22
8250.23
8250.19
8250.24
8250.2
8250.17
8250.2
8250.22
8250.25
8250.08
8250.06
8250.04
8250.01
8249.91
8249.91
8249.87
8249.91
8249.93
8249.95
8250.12
8250.1
8250.11
8250.08
8250.08
8250.05
8250.02
8249.99
8249.96
8249.94
8249.89
8250
8250
8250.1
8250.16
8250.23
8250.29
8250.34
8250.33
8250.38
8250.44
8250.45
8250.48
8250.52
8250.5
8250.54
8250.57
8250.61
8250.6
8250.58
8250.65
8250.65
8250.67
8250.67
8250.65
8250.61
8250.61
8250.63
8250.51
8250.54
8250.5
8250.52
8250.53
8250.53
8250.57
8250.53
8250.54
8250.61
8250.49
8250.52
8250.49
8250.46
8250.47
8250.44
8250.39
8250.29
8250.34
8250.37
8250.4
8250.45
8250.51
8250.56
8250.55
8250.6
8250.6
8250.65
8250.69
8250.68
8250.73
8250.7
8250.75
8250.72
8250.72
8250.72
8250.73
8250.75
8250.75
8250.74
8250.54
8250.55
8250.56
8250.46
8250.38
8250.39
8250.27
8250.28
8250.29
8250.3
8250.39
8250.49
8250.49
8250.43
8250.32
8250.21
8250.13
8250
8249.99
8250.02
8250.12
8250.2
8250.1
8250.07
8250.1
8250.17
8250.19
8250.28
8250.41
8250.5
8250.62
8250.73
8250.84
8250.94
8251.06
8251.14
8251.25
8251.31
8251.43
8251.48
8251.58
8251.62
8251.72
8251.75
8251.84
8251.87
8251.94
8251.97
8252.09
8252.08
8252.15
8252.17
8252.25
8252.28
8252.38
8252.42
8252.49
8252.59
8252.71
8252.9
8253.07
8253.32
8253.5
8253.53
8253.5
8253.49
8253.45
8253.44
8253.44
8253.47
8253.4
8253.24
8253.08
8252.98
8252.93
8252.79
8252.68
8252.59
8252.51
8252.42
8252.3
8252.35
8252.33
8252.41
8252.5
8252.58
8252.67
8252.77
8252.91
8252.9
8253.06
8253.26
8253.25
8253.27
8253.26
8253.26
8253.27
8253.28
8253.27
8253.29
8253.32
8253.54
8253.69
8253.68
8253.73
8253.67
8253.68
8253.66
8253.66
8253.6
8253.44
8253.72
8253.64
8253.62
8253.43
8253.25
8253.1
8252.99
8252.84
8252.73
8252.63
8252.55
8252.46
8252.33
8252.35
8252.22
8252.19
8252.14
8252.1
8252.07
8252.02
8251.98
8251.95
8251.91
8251.86
8251.79
8251.8
8251.77
8251.78
8251.79
8251.82
8251.82
8251.81
8251.79
8251.76
8251.84
8251.9
8251.94
8251.98
8252.02
8252.05
8252.08
8252.11
8252.15
8252.19
8252.22
8252.23
8252.19
8252.16
8252.13
8252.11
8252.07
8252.04
8252
8251.96
8251.92
8251.87
8251.88
8251.94
8251.97
8252.01
8252.05
8252.08
8252.12
8252.15
8252.17
8252.2
8252.22
8252.25
8252.27
8252.35
8252.39
8252.49
8252.58
8252.62
8252.78
8252.68
8252.81
8252.84
8253.09
8253.11
8253.1
8253.06
8252.99
8253.04
8253.08
8253.07
8253.32
8253.33
8253.53
8253.53
8253.53
8253.76
8253.89
8253.89
8253.88
8253.86
8253.89
8253.91
8253.89
8253.85
8253.89
8253.82
8253.94
8253.97
8253.73
8253.5
8253.32
8253.12
8253.13
8253.16
8253.33
8253.51
8253.71
8253.7
8253.95
8254.1
8254.1
8254.11
8254.28
8254.27
8254.19
8253.96
8253.79
8253.58
8253.37
8253.18
8253.01
8253.06
8253.05
8252.94
8252.88
8252.76
8252.66
8252.57
8252.47
8252.34
8252.38
8252.23
8252.19
8252.13
8252.08
8252.05
8251.99
8252
8251.97
8251.94
8251.9
8251.85
8251.81
8251.74
8251.69
8251.62
8251.54
8251.47
8251.36
8251.35
8251.32
8251.25
8251.25
8251.27
8251.32
8251.31
8251.31
8251.28
8251.23
8251.33
8251.42
8251.51
8251.58
8251.67
8251.7
8251.71
8251.77
8251.83
8251.88
8251.93
8251.97
8252
8252.05
8252.09
8252.14
8252.18
8252.26
8252.31
8252.4
8252.48
8252.58
8252.68
8252.8
8252.96
8253.12
8253.29
8253.5
8253.69
8253.85
8254.01
8253.99
8254.02
8254.01
8253.88
8254.15
8254.27
8254.32
8254.28
8254.44
8254.48
8254.5
8254.36
8254.19
8253.93
8253.91
8253.94
8254.14
8254.16
8254.31
8254.52
8254.63
8254.78
8254.91
8254.94
8254.94
8254.97
8254.87
8254.73
8254.69
8254.77
8254.86
8254.69
8254.57
8254.54
8254.7
8254.71
8254.74
8254.84
8255.01
8255
8254.98
8255.17
8255.1
8255.05
8254.95
8254.85
8254.69
8254.51
8254.49
8254.53
8254.67
8254.67
8254.8
8254.93
8255.04
8255.13
8255.22
8255.22
8255.19
8255.35
8255.33
8255.26
8255.17
8255.02
8255.07
8255.07
8255.16
8255.26
8255.26
8255.34
8255.46
8255.46
8255.44
8255.59
8255.61
8255.44
8255.46
8255.47
8255.49
8255.58
8255.72
8255.7
8255.74
8255.77
8255.72
8255.56
8255.4
8255.43
8255.4
8255.27
8255.27
8255.09
8255.1
8254.92
8254.84
8254.63
8254.58
8254.52
8254.27
8254.05
8254.01
8253.93
8253.6
8253.44
8253.22
8253.27
8253.07
8253.08
8252.91
8252.81
8252.69
8252.71
8252.57
8252.48
8252.5
8252.35
8252.33
8252.27
8252.19
8252.1
8252.13
8252.06
8252.04
8251.99
8251.96
8251.93
8251.88
8251.87
8251.84
8251.8
8251.75
8251.68
8251.61
8251.53
8251.46
8251.38
8251.28
8251.21
8251.1
8251
8250.88
8250.78
8250.64
8250.65
8250.69
8250.76
8250.84
8250.84
8250.85
8250.78
8250.72
8250.88
8250.97
8251.1
8251.17
8251.22
8251.25
8251.33
8251.43
8251.5
8251.58
8251.65
8251.72
8251.78
8251.83
8251.87
8251.93
8251.96
8252.03
8252.06
8252.13
8252.17
8252.26
8252.32
8252.41
8252.5
8252.6
8252.71
8252.84
8253
8253.17
8253.35
8253.55
8253.75
8253.93
8254.06
8254.22
8254.29
8254.32
8254.35
8254.38
8254.38
8254.39
8254.32
8254.55
8254.64
8254.73
8254.88
8254.83
8255
8255.06
8255.06
8255.16
8255.32
8255.3
8255.42
8255.57
8255.57
8255.69
8255.83
8255.84
8255.99
8255.97
8255.95
8255.9
8255.89
8255.91
8255.72
8255.63
8255.48
8255.47
8255.31
8255.18
8255.2
8255.13
8254.96
8254.85
8254.85
8254.61
8254.56
8254.55
8254.31
8254.3
8254.04
8254.02
8253.73
8253.71
8253.43
8253.45
8253.23
8253.25
8253.11
8253.12
8252.95
8252.83
8252.84
8252.68
8252.7
8252.6
8252.62
8252.46
8252.35
8252.38
8252.24
8252.19
8252.11
8252.09
8252.11
8252.03
8252.01
8251.95
8251.91
8251.87
8251.85
8251.81
8251.76
8251.7
8251.63
8251.56
8251.47
8251.39
8251.29
8251.2
8251.08
8250.98
8250.86
8250.75
8250.65
8250.53
8250.45
8250.32
8250.22
8250.11
8250.16
8250.06
8249.94
8249.85
8249.7
8249.66
8249.71
8249.83
8249.93
8249.82
8249.66
8249.66
8249.7
8249.83
8249.9
8249.92
8250.01
8250.15
8250.22
8250.34
8250.44
8250.55
8250.66
8250.77
8250.88
8250.99
8251.07
8251.19
8251.26
8251.37
8251.44
8251.54
8251.6
8251.69
8251.73
8251.81
8251.84
8251.91
8251.93
8252
8252.04
8252.12
8252.17
8252.25
8252.32
8252.4
8252.47
8252.57
8252.68
8252.81
8252.98
8253.17
8253.38
8253.57
8253.75
8253.92
8254.04
8254.16
8254.17
8254.17
8254.17
8254.18
8254.19
8254.22
8254.15
8254.15
8254.15
8254.14
8254.11
8254.29
8254.38
8254.42
8254.46
8254.49
8254.54
8254.5
8254.5
8254.7
8254.83
8254.8
8254.98
8255.08
8255.13
8255.21
8255.15
8255.37
8255.43
8255.45
8255.66
8255.67
8255.85
8255.81
8255.95
8255.96
8256.08
8256.08
8256.11
8256.04
8256.04
8255.92
8255.92
8255.76
8255.67
8255.54
8255.55
8255.35
8255.37
8255.19
8255.19
8255.11
8255.11
8254.89
8254.91
8254.69
8254.62
8254.56
8254.26
8254.29
8254.04
8253.74
8253.69
8253.48
8253.47
8253.26
8253.12
8253.09
8252.99
8252.99
8252.81
8252.72
8252.6
8252.57
8252.46
8252.49
8252.32
8252.27
8252.18
8252.08
8252.09
8252.02
8251.98
8251.92
8251.94
8251.88
8251.88
8251.84
8251.78
8251.72
8251.66
8251.58
8251.5
8251.41
8251.31
8251.2
8251.1
8250.98
8250.89
8250.76
8250.64
8250.58
8250.46
8250.38
8250.27
8250.18
8250.18
8250.27
8250.37
8250.46
8250.48
8250.55
8250.67
8250.79
8250.85
8250.83
8250.69
8250.68
8250.77
8250.89
8250.99
8251.01
8250.92
8250.89
8250.9
8250.7
8250.71
8250.71
8250.59
8250.41
8250.43
8250.34
8250.37
8250.27
8250.28
8250.24
8250.29
8250.29
8250.25
8250.26
8250.28
8250.33
8250.35
8250.33
8250.39
8250.4
8250.45
8250.5
8250.53
8250.44
8250.43
8250.48
8250.54
8250.52
8250.6
8250.64
8250.69
8250.64
8250.73
8250.76
8250.76
8250.82
8250.81
8250.79
8250.86
8250.84
8250.87
8250.88
8250.89
8250.9
8250.91
8250.88
8250.87
8250.88
8250.89
8250.94
8250.97
8251
8251.02
8251.03
8251.02
8251.04
8251.02
8250.87
8250.88
8250.99
8251.01
8251
8250.98
8250.93
8251.03
8251.11
8251.15
8251.08
8251.12
8251.19
8251.23
8251.23
8251.24
8251.33
8251.33
8251.43
8251.44
8251.43
8251.41
8251.39
8251.46
8251.54
8251.61
8251.67
8251.7
8251.64
8251.56
8251.49
8251.52
8251.58
8251.66
8251.72
8251.76
8251.69
8251.6
8251.6
8251.61
8251.69
8251.73
8251.8
8251.81
8251.82
8251.8
8251.89
8251.88
8251.88
8251.95
8251.99
8252.03
8252.07
8252.1
8252.14
8252.17
8252.19
8252.22
8252.21
8252.26
8252.26
8252.3
8252.31
8252.3
8252.43
8252.48
8252.57
8252.56
8252.66
8252.84
8252.8
8252.84
8252.82
8252.78
8252.75
8252.76
8252.78
8252.6
8252.57
8252.57
8252.44
8252.38
8252.37
8252.38
8252.34
8252.33
8252.41
8252.38
8252.4
8252.48
8252.4
8252.39
8252.58
8252.56
8252.58
8252.83
8252.79
8252.84
8252.81
8252.87
8252.94
8253.14
8253.18
8253.36
8253.52
8253.74
8253.71
8253.69
8253.93
8254.03
8254.02
8254.04
8254.06
8254.03
8254
8254
8254.02
8254.15
8254.14
8254.18
8254.27
8254.36
8254.35
8254.42
8254.45
8254.48
8254.67
8254.8
8254.77
8254.95
8255.04
8255.04
8255.07
8255.12
8255.33
8255.48
8255.54
8255.52
8255.51
8255.74
8255.75
8255.93
8255.91
8255.83
8256.02
8256.04
8256.05
8256.15
8256.15
8256.17
8256.2
8256.18
8256.12
8256.16
8256.16
8256.17
8256.19
8256.23
8256.24
8256.21
8256.22
8256.2
8256.13
8256.15
8256.05
8255.94
8255.93
8255.77
8255.68
8255.71
8255.54
8255.55
8255.46
8255.43
8255.25
8255.29
8255.08
8255.04
8254.94
8254.93
8254.69
8254.57
8254.53
8254.32
8254.32
8253.99
8254.01
8253.75
8253.73
8253.45
8253.28
8253.33
8253.16
8253.19
8252.97
8252.87
8252.71
8252.76
8252.73
8252.55
8252.47
8252.36
8252.24
8252.28
8252.14
8252.12
8252.08
8252.01
8251.97
8251.91
8251.88
8251.83
8251.78
8251.72
8251.66
8251.58
8251.5
8251.4
8251.31
8251.21
8251.11
8251.03
8251.02
8250.96
8250.98
8250.79
8250.81
8250.81
8250.67
8250.58
8250.44
8250.44
8250.37
8250.26
8250.23
8250.37
8250.45
8250.41
8250.43
8250.44
8250.44
8250.45
8250.39
8250.28
8250.31
8250.3
8250.31
8250.29
8250.31
8250.42
8250.41
8250.48
8250.38
8250.38
8250.38
8250.41
8250.46
8250.46
8250.44
8250.45
8250.4
8250.38
8250.45
8250.51
8250.58
8250.59
8250.61
8250.59
8250.66
8250.52
8250.52
8250.54
8250.6
8250.67
8250.73
8250.77
8250.77
8250.83
8250.83
8250.89
8250.87
8250.94
8250.92
8251.04
8251.05
8251.05
8251.07
8251.09
8251.12
8251.14
8251.11
8251.11
8251.2
8251.3
8251.38
8251.47
8251.55
8251.62
8251.69
8251.76
8251.82
8251.87
8251.94
8251.98
8252.05
8252.07
8252.14
8252.16
8252.23
8252.22
8252.29
8252.29
8252.35
8252.37
8252.45
8252.52
8252.62
8252.78
8252.91
8253.05
8253.28
8253.46
8253.63
8253.65
8253.62
8253.58
8253.48
8253.27
8253.06
8253.06
8253.26
8253.39
8253.48
8253.66
8253.87
8254.02
8254.15
8254.24
8254.35
8254.48
8254.57
8254.64
8254.78
8254.86
8254.92
8255.03
8255.12
8255.22
8255.24
8255.28
8255.42
8255.43
8255.48
8255.71
8255.8
8255.85
8255.99
8255.97
8255.89
8256.08
8256.07
8256.15
8256.12
8256.2
8256.2
8256.21
8256.25
8256.27
8256.24
8256.25
8256.25
8256.22
8256.17
8256.2
8256.13
8256.1
8256.09
8255.94
8255.95
8255.79
8255.82
8255.66
8255.68
8255.59
8255.63
8255.44
8255.48
8255.48
8255.24
8255.2
8255.26
8255.08
8255.11
8254.87
8254.85
8254.79
8254.73
8254.47
8254.29
8254.26
8253.96
8253.75
8253.71
8253.68
8253.43
8253.33
8253.14
8253.16
8253.17
8252.97
8252.89
8252.71
8252.7
8252.72
8252.54
8252.46
8252.37
8252.23
8252.26
8252.25
8252.11
8252.08
8252.01
8251.96
8251.91
8251.87
8251.82
8251.77
8251.71
8251.64
8251.55
8251.46
8251.4
8251.25
8251.24
8251.14
8251.13
8251.1
8251.09
8251.08
8250.96
8250.78
8250.8
8250.66
8250.59
8250.56
8250.7
8250.76
8250.79
8250.84
8250.68
8250.68
8250.69
8250.75
8250.58
8250.57
8250.53
8250.51
8250.59
8250.67
8250.67
8250.73
8250.78
8250.82
8250.86
8250.91
8250.91
8250.98
8250.96
8251.04
8251.1
8251.11
8251.19
8251.17
8251.21
8251.23
8251.25
8251.26
8251.27
8251.25
8251.24
8251.22
8251.2
8251.2
8251.21
8251.28
8251.3
8251.35
8251.36
8251.38
8251.38
8251.37
8251.44
8251.45
8251.46
8251.54
8251.51
8251.52
8251.58
8251.66
8251.74
8251.79
8251.86
8251.92
8251.97
8252.01
8252.06
8252.09
8252.14
8252.17
8252.2
8252.24
8252.25
8252.28
8252.32
8252.34
8252.28
8252.24
8252.25
8252.24
8252.29
8252.29
8252.32
8252.33
8252.25
8252.37
8252.3
8252.26
8252.29
8252.4
8252.45
8252.43
8252.5
8252.48
8252.45
8252.57
8252.6
8252.62
8252.71
8252.78
8252.83
8253
8253.04
8253.21
8253.38
8253.54
8253.75
8253.7
8253.94
8254.02
8254.15
8254.15
8254.16
8254.15
8254.09
8254.27
8254.24
8254.21
8254.38
8254.36
8254.35
8254.52
8254.53
8254.58
8254.63
8254.75
8254.75
8254.92
8255.01
8254.99
8255.2
8255.19
8255.37
8255.37
8255.36
8255.59
8255.66
8255.8
8255.79
8255.95
8255.96
8255.91
8255.93
8256.1
8256.13
8256.2
8256.16
8256.11
8256.25
8256.25
8256.24
8256.21
8256.33
8256.27
8256.31
8256.28
8256.29
8256.28
8256.29
8256.25
8256.22
8256.16
8256.2
8256.11
8256.06
8256.07
8255.93
8255.91
8255.95
8255.8
8255.8
8255.83
8255.67
8255.6
8255.59
8255.5
8255.44
8255.44
8255.41
8255.2
8255.08
8255.03
8255.08
8254.79
8254.8
8254.69
8254.68
8254.41
8254.21
8254.24
8253.94
8253.93
8253.68
8253.68
8253.45
8253.34
8253.33
8253.15
8253.19
8252.98
8252.88
8252.85
8252.68
8252.73
8252.53
8252.45
8252.36
8252.23
8252.21
8252.26
8252.11
8252.07
8252.01
8251.97
8251.91
8251.87
8251.82
8251.77
8251.7
8251.63
8251.54
8251.47
8251.32
8251.33
8251.33
8251.21
8251.19
8251.19
8251.21
8251.25
8251.11
8251.09
8250.93
8250.97
8250.82
8250.86
8250.91
8250.78
8250.74
8250.78
8250.83
8250.86
8250.91
8250.94
8250.99
8250.99
8251.06
8251.02
8251.16
8251.18
8251.21
8251.28
8251.37
8251.39
8251.4
8251.41
8251.42
8251.44
8251.56
8251.54
8251.56
8251.53
8251.62
8251.62
8251.63
8251.7
8251.75
8251.75
8251.81
8251.88
8251.88
8251.89
8251.95
8251.94
8251.99
8252.03
8252.08
8252.11
8252.15
8252.18
8252.21
8252.23
8252.24
8252.22
8252.2
8252.17
8252.13
8252.1
8252.05
8252
8252
8252.04
8252.1
8252.13
8252.18
8252.21
8252.24
8252.27
8252.23
8252.28
8252.26
8252.29
8252.34
8252.32
8252.36
8252.35
8252.37
8252.28
8252.4
8252.35
8252.35
8252.39
8252.39
8252.37
8252.34
8252.3
8252.35
8252.36
8252.34
8252.33
8252.36
8252.36
8252.36
8252.35
8252.3
8252.36
8252.36
8252.32
8252.41
8252.37
8252.46
8252.47
8252.48
8252.53
8252.57
8252.58
8252.57
8252.48
8252.39
8252.31
8252.23
8252.17
8252.11
8252.07
8252.04
8251.98
8252.03
8252.07