/*--------------------------------*- C++ -*----------------------------------*\
| =========                 |                                                 |
| \\      /  F ield         | OpenFOAM: The Open Source CFD Toolbox           |
|  \\    /   O peration     | Version:  5.0                                   |
|   \\  /    A nd           | Web:      www.OpenFOAM.org                      |
|    \\/     M anipulation  |                                                 |
\*---------------------------------------------------------------------------*/
FoamFile
{
    version     2.0;
    format      ascii;
    class       volScalarField;
    location    "60";
    object      rho;
}
// * * * * * * * * * * * * * * * * * * * * * * * * * * * * * * * * * * * * * //

dimensions      [1 -3 0 0 0 0 0];

internalField   uniform 1060;

boundaryField
{
    Wall_Aorta
    {
        type            calculated;
        value           uniform 1060;
    }
    Cap_LAD_D1
    {
        type            calculated;
        value           uniform 1060;
    }
    Cap_LAD_D4
    {
        type            calculated;
        value           nonuniform 0();
    }
    Cap_LAD_LAD3
    {
        type            calculated;
        value           uniform 1060;
    }
    Cap_LAD_RI
    {
        type            calculated;
        value           nonuniform 0();
    }
    Cap_LCX_LCX1
    {
        type            calculated;
        value           nonuniform 0();
    }
    Cap_RCA_AM
    {
        type            calculated;
        value           uniform 1060;
    }
    Cap_RCA_RPDA1
    {
        type            calculated;
        value           nonuniform 0();
    }
    Cap_RCA_RPLB2
    {
        type            calculated;
        value           nonuniform 0();
    }
    Cap_Aorta_Inlet
    {
        type            calculated;
        value           nonuniform 0();
    }
    Cap_Aorta_Outlet
    {
        type            calculated;
        value           nonuniform 0();
    }
    procBoundary3to0
    {
        type            processor;
        value           uniform 1060;
    }
    procBoundary3to2
    {
        type            processor;
        value           uniform 1060;
    }
    procBoundary3to7
    {
        type            processor;
        value           uniform 1060;
    }
}


// ************************************************************************* //
