/*--------------------------------*- C++ -*----------------------------------*\
| =========                 |                                                 |
| \\      /  F ield         | OpenFOAM: The Open Source CFD Toolbox           |
|  \\    /   O peration     | Version:  5.0                                   |
|   \\  /    A nd           | Web:      www.OpenFOAM.org                      |
|    \\/     M anipulation  |                                                 |
\*---------------------------------------------------------------------------*/
FoamFile
{
    version     2.0;
    format      ascii;
    class       volVectorField;
    location    "60";
    object      UHyper;
}
// * * * * * * * * * * * * * * * * * * * * * * * * * * * * * * * * * * * * * //

dimensions      [0 1 -1 0 0 0 0];

internalField   nonuniform List<vector> 
36178
(
(-0.121182 0.110244 0.00257131)
(-0.0832556 0.0805622 0.00203763)
(-0.0803002 0.0868739 0.00344257)
(-0.0926111 0.0869765 0.00122578)
(-0.107116 0.0996594 0.00689764)
(-0.107665 0.0939796 0.000708723)
(-0.142274 0.132245 0.00517258)
(-0.140393 0.13234 0.00441851)
(-0.107649 0.109947 0.00369451)
(-0.0685234 0.0813236 5.88274e-06)
(-0.0656432 0.0861398 -0.00555985)
(-0.0862435 0.0855957 0.00543123)
(-0.10819 0.109546 0.00133189)
(-0.106355 0.112014 0.00330326)
(-0.118077 0.117405 0.000348906)
(-0.108057 0.109741 0.000333891)
(-0.115771 0.107684 -8.16535e-05)
(-0.0891357 0.0811255 0.0035004)
(-0.109416 0.0960846 0.00494663)
(-0.104982 0.0904901 0.00409261)
(-0.0736813 0.0691842 0.002255)
(-0.0813664 0.076461 0.0091668)
(-0.116921 0.106643 0.005802)
(-0.133182 0.123919 0.00718415)
(-0.11516 0.114941 0.00628044)
(-0.0838259 0.0933925 0.00190941)
(-0.0528239 0.0644923 -0.00136715)
(-0.0510132 0.0643535 -0.00682459)
(-0.0698591 0.0710919 0.00406443)
(-0.0608666 0.072058 -0.000732214)
(-0.0502121 0.0690182 -0.00246032)
(-0.0624373 0.0726207 -0.000593188)
(-0.0623394 0.0781214 -0.00640356)
(-0.110896 0.115572 -0.00313389)
(-0.109897 0.117472 -0.00107191)
(-0.122549 0.123423 4.92658e-05)
(-0.112164 0.115643 0.000283665)
(-0.120841 0.114207 -0.000832686)
(-0.104658 0.0948706 -0.00192564)
(-0.0996935 0.0994563 -0.00716456)
(-0.0949359 0.0960768 -0.0109017)
(-0.0835567 0.0786349 -0.00132291)
(-0.0941812 0.0770773 -0.00112651)
(-0.100575 0.0840144 -0.00626064)
(-0.119432 0.100242 -0.00147429)
(-0.115889 0.0987103 0.00237613)
(-0.0865579 0.0788193 0.00548258)
(-0.0842323 0.0712553 0.00577083)
(-0.107408 0.0903471 0.00706571)
(-0.101434 0.0925414 0.00549895)
(-0.0862438 0.0832855 0.0017005)
(-0.0633214 0.0679146 0.00125781)
(-0.0447355 0.0477656 0.000110965)
(-0.0428624 0.0483188 -0.00568506)
(-0.0579332 0.0548959 0.00279366)
(-0.0492428 0.0541611 -0.00314837)
(-0.0440741 0.0492804 -0.00275439)
(-0.0534543 0.0596292 -0.0023205)
(-0.0555476 0.0684302 -0.00542562)
(-0.0513297 0.0754948 -0.00324271)
(-0.0657989 0.0857936 -0.00334738)
(-0.0769573 0.107705 -0.00259905)
(-0.0980626 0.108181 -0.00915138)
(-0.0910881 0.107245 -0.00684579)
(-0.10401 0.105709 -0.00341679)
(-0.0953501 0.0984802 -0.000602829)
(-0.0950008 0.0853853 -0.00730122)
(-0.201396 0.194277 -0.0138641)
(-0.234571 0.211093 0.00435777)
(-0.192498 0.170593 0.00133177)
(-0.108859 0.0913504 0.00169114)
(-0.106169 0.0894936 0.00536564)
(-0.0824326 0.0699624 0.00548035)
(-0.163997 0.149845 0.00773325)
(-0.190339 0.168245 0.00552704)
(-0.227286 0.196002 -7.61256e-05)
(-0.229822 0.198288 -0.00637726)
(-0.211833 0.187461 -0.0126495)
(-0.169775 0.154672 -0.0120061)
(-0.0823965 0.0791888 -0.00969659)
(-0.105828 0.0770517 -0.00126579)
(-0.0948354 0.088911 -0.0220888)
(-0.0959243 0.0773257 -0.00848031)
(-0.104834 0.0696761 -0.00669642)
(-0.0963872 0.0724584 -0.0126642)
(-0.114502 0.0856277 -0.00498295)
(-0.105861 0.0829052 0.00109318)
(-0.0827464 0.0677957 0.00673189)
(-0.0777006 0.0550124 0.00242964)
(-0.0803321 0.0712968 0.0040775)
(-0.0553298 0.0567725 0.0012102)
(-0.0363385 0.0344063 -0.000560385)
(-0.0343426 0.0362176 0.00143602)
(-0.0438325 0.0498347 -0.00117036)
(-0.0537061 0.0521633 0.000227785)
(-0.063928 0.0526428 -0.00103316)
(-0.0994804 0.0890783 0.00192761)
(-0.140777 0.121126 0.00599912)
(-0.162154 0.134834 -0.00536739)
(-0.164197 0.136402 -0.0121165)
(-0.154103 0.131289 -0.0188304)
(-0.12751 0.112788 -0.0207754)
(-0.066 0.0647928 -0.0145237)
(-0.0756027 0.0757121 -0.0176204)
(-0.0763971 0.0839699 -0.0150806)
(-0.0630638 0.0750511 -0.011776)
(-0.0705234 0.0769654 -0.00299084)
(-0.107878 0.100531 -0.0143353)
(-0.096475 0.100507 -0.00601257)
(-0.0939105 0.105267 -0.000609463)
(-0.108156 0.0953761 -0.0104905)
(-0.0895272 0.0852201 -0.00944118)
(-0.110292 0.108139 -0.0124616)
(-0.109387 0.0997513 -0.0180953)
(-0.0866483 0.0687275 -0.0151115)
(-0.0634274 0.0469632 -0.0141998)
(-0.0671193 0.0494481 -0.00829147)
(-0.0665757 0.0447444 -0.00550649)
(-0.0563513 0.048321 -0.0120762)
(-0.0557629 0.0408895 -0.0080853)
(-0.0602895 0.0430431 -0.00571005)
(-0.0720581 0.0467125 -0.00189814)
(-0.0689733 0.0452088 0.00117112)
(-0.0715214 0.0480927 0.000196046)
(-0.0692553 0.0569046 0.00557502)
(-0.0608675 0.0460209 0.00208696)
(-0.0511013 0.0461131 0.00329863)
(-0.0371915 0.0314399 0.00241715)
(-0.0373067 0.0352364 0.00225225)
(-0.030695 0.0279449 0.00103747)
(-0.0389671 0.040213 -0.00188796)
(-0.0487766 0.0413269 0.000301285)
(-0.0523171 0.0507687 0.00119132)
(-0.0370669 0.035571 -0.000648451)
(-0.0356349 0.0373582 -0.00486081)
(-0.0464384 0.0417905 0.00182705)
(-0.0409047 0.0413708 -0.00242142)
(-0.0363774 0.0380354 -0.00183969)
(-0.0459496 0.0455334 -0.00206386)
(-0.0502155 0.0522676 -0.00367511)
(-0.0480463 0.0555868 -0.00468427)
(-0.0421859 0.0553056 -0.00501031)
(-0.0471009 0.0576562 -0.00195004)
(-0.0810999 0.090522 -0.0079863)
(-0.0608256 0.068054 -0.00834778)
(-0.0561379 0.0828898 -0.00613894)
(-0.123388 0.141138 -0.0118473)
(-0.162488 0.173458 -0.0146652)
(-0.0893646 0.0943494 -0.0103829)
(-0.106695 0.101013 -0.0205012)
(-0.0916267 0.0851479 -0.0215203)
(-0.0723217 0.0586879 -0.0157759)
(-0.0501042 0.0383371 -0.00922226)
(-0.0547747 0.0357237 -0.00163348)
(-0.0509852 0.0424853 -0.00866549)
(-0.0509271 0.035225 -0.00426954)
(-0.0539321 0.0379611 -0.00483185)
(-0.0636921 0.0465497 -0.00225162)
(-0.0618615 0.0441682 0.00160045)
(-0.0452624 0.0331027 0.00152445)
(-0.045965 0.0334929 0.00523242)
(-0.0542597 0.0432366 0.00545748)
(-0.0461848 0.0421445 0.00319069)
(-0.0330968 0.0281434 0.00103202)
(-0.033753 0.0305144 0.00110492)
(-0.0273274 0.0230545 -0.000182966)
(-0.0334769 0.0320056 -0.00201668)
(-0.042681 0.0332018 -0.000338437)
(-0.044457 0.0408425 -0.00111301)
(-0.0307906 0.0279765 -0.00165847)
(-0.0294104 0.0284988 -0.00375238)
(-0.0381534 0.0326794 0.00119178)
(-0.0335835 0.0317194 -0.00184685)
(-0.0304117 0.0289316 -0.000823618)
(-0.0373134 0.0346558 -0.00120216)
(-0.0428015 0.0403355 -0.00175842)
(-0.0413522 0.0429748 -0.00205106)
(-0.0391269 0.0415919 -0.00257899)
(-0.0446937 0.0505184 -0.00358274)
(-0.0315785 0.0355899 -0.00139356)
(-0.0529874 0.0564868 -0.00740876)
(-0.0468437 0.0583164 -0.00583336)
(-0.0468395 0.0672656 -0.00188411)
(-0.0486182 0.0621047 -0.00701037)
(-0.0588477 0.0618919 -0.0114525)
(-0.0454606 0.0430699 -0.00670224)
(-0.0434231 0.050393 -0.00726081)
(-0.0467366 0.0459759 -0.0105012)
(-0.0582632 0.0520315 -0.0129999)
(-0.0449841 0.0363099 -0.00789258)
(-0.033468 0.0249979 -0.0075638)
(-0.0356361 0.026783 -0.00377069)
(-0.0522883 0.0391706 -0.00538989)
(-0.0459145 0.0313784 -0.000885142)
(-0.0530141 0.034258 -0.00147652)
(-0.0972874 0.0675265 -0.0065587)
(-0.130417 0.0993045 -0.01194)
(-0.101563 0.0766298 -0.0124899)
(-0.114853 0.0943571 -0.0165962)
(-0.0960385 0.0731957 -0.0118501)
(-0.0771515 0.055042 -0.00916483)
(-0.0435079 0.0257039 -0.00350148)
(-0.0425471 0.028689 -0.00837979)
(-0.0384208 0.023454 -0.00607921)
(-0.0360032 0.0238652 -0.00141417)
(-0.0450799 0.0280641 -0.000252533)
(-0.0421854 0.0267672 0.00216615)
(-0.0416232 0.0261501 0.00236457)
(-0.0470969 0.0334208 0.00429483)
(-0.0399788 0.026291 0.00183338)
(-0.0366131 0.0291233 0.00261821)
(-0.0286853 0.0198295 0.000145981)
(-0.0312245 0.0230047 0.00054143)
(-0.0274865 0.0189804 0.000318136)
(-0.0199744 0.0131242 -0.00043057)
(-0.024558 0.0190104 -0.0014078)
(-0.031504 0.019622 -0.000500134)
(-0.0285433 0.0241657 -0.00163522)
(-0.0361882 0.0255697 -0.000444182)
(-0.0233015 0.0174235 -0.000522133)
(-0.0309731 0.0240146 0.000320565)
(-0.0329286 0.0257033 0.0011507)
(-0.0281852 0.0223223 0.00275434)
(-0.039578 0.0247415 0.000251313)
(-0.0377161 0.0311498 0.00299786)
(-0.0383266 0.0288782 0.00376098)
(-0.0473831 0.0288412 -0.000635647)
(-0.0449891 0.0353987 0.00536654)
(-0.0391055 0.0286099 0.0050849)
(-0.0392455 0.025874 0.00291665)
(-0.0418803 0.0258925 -0.000145534)
(-0.0384937 0.026995 0.000104975)
(-0.0379418 0.026899 0.00326006)
(-0.0808828 0.056923 0.0031264)
(-0.0830374 0.0586614 -0.00179687)
(-0.111081 0.0762971 -0.0060703)
(-0.0994442 0.0673518 -0.00863181)
(-0.0770826 0.0480827 -0.00666514)
(-0.0417529 0.0209754 -0.00321838)
(-0.0413631 0.0236347 -0.00448162)
(-0.0485378 0.0283881 -0.00211708)
(-0.0441478 0.0263591 0.000833215)
(-0.0313585 0.0194197 0.000800127)
(-0.0298643 0.0184199 0.00250501)
(-0.0290667 0.0201075 0.0015114)
(-0.0228796 0.0148081 0.00135422)
(-0.0282197 0.0180944 0.000319521)
(-0.0278004 0.0177672 -4.68398e-07)
(-0.023246 0.0152174 -0.000313982)
(-0.016447 0.0108361 -0.000759436)
(-0.0187145 0.0140875 -0.00152574)
(-0.0259133 0.015414 -0.000378863)
(-0.0268676 0.0189257 -0.000572829)
(-0.0172679 0.0122657 -0.00139837)
(-0.0158724 0.0111829 -8.14496e-05)
(-0.0202086 0.0148463 -0.00105212)
(-0.02115 0.0159354 -0.00166364)
(-0.0267026 0.0184315 -0.000278603)
(-0.0217754 0.0151673 -0.000443256)
(-0.0319012 0.0236643 -0.000754975)
(-0.0256459 0.0206931 -0.00148318)
(-0.0245968 0.0216763 -0.00335616)
(-0.0316225 0.0247935 0.000427551)
(-0.0277135 0.0238697 -0.00119282)
(-0.0252415 0.0212193 -3.7102e-05)
(-0.0308886 0.0264288 -0.000765265)
(-0.0354736 0.0303615 -0.00102561)
(-0.0348667 0.0327805 -0.000933814)
(-0.0335572 0.0321638 -0.00168441)
(-0.0408075 0.0390913 -0.00160567)
(-0.0310227 0.0304948 -0.0017391)
(-0.0296137 0.0327606 -0.00239211)
(-0.0300222 0.0335783 -0.00474085)
(-0.0405261 0.0459912 -0.00542084)
(-0.0391941 0.0392064 -0.00644784)
(-0.0288592 0.0310918 -0.00579455)
(-0.029337 0.0313963 -0.00455199)
(-0.0348921 0.0323549 -0.00805638)
(-0.0323105 0.028582 -0.00872568)
(-0.040217 0.0386161 -0.0101188)
(-0.0331507 0.0280649 -0.00792221)
(-0.0384957 0.0222431 -0.00594944)
(-0.0375497 0.0272832 -0.010453)
(-0.0375486 0.0230648 -0.0081772)
(-0.0299272 0.016154 -0.0068241)
(-0.0289463 0.0160032 -0.00381408)
(-0.0356947 0.016346 -0.00349373)
(-0.0344507 0.0191622 -0.00648222)
(-0.0309241 0.0154029 -0.00394901)
(-0.0286639 0.014712 -0.00293538)
(-0.0322285 0.0166045 -0.00132226)
(-0.0298266 0.0158873 0.000574056)
(-0.0318937 0.0168979 0.000903003)
(-0.0352211 0.0212674 0.00157907)
(-0.0311327 0.0168646 -0.000326024)
(-0.0279852 0.0191137 0.00116563)
(-0.0227234 0.0132643 -0.00038048)
(-0.0249876 0.0162996 -1.40462e-05)
(-0.0231971 0.0150371 -0.000198526)
(-0.0183799 0.011113 0.000105276)
(-0.0219487 0.0146356 -0.00126025)
(-0.0234923 0.0148081 -0.00145584)
(-0.0153361 0.0095686 -0.00116035)
(-0.0142459 0.00979602 -0.00213377)
(-0.0193599 0.0111231 -0.000219794)
(-0.0207713 0.0144048 -0.00141125)
(-0.0182033 0.0115397 -0.00103551)
(-0.0168512 0.0115042 -0.00100413)
(-0.02164 0.0139485 -0.00145392)
(-0.0218587 0.0152695 -0.0010062)
(-0.027104 0.0199964 -0.00116379)
(-0.0297997 0.0234794 -0.00160995)
(-0.0205476 0.0156403 -0.00058515)
(-0.0250711 0.0198796 -0.00058482)
(-0.0230064 0.0184037 -0.00167762)
(-0.0500924 0.0375293 -0.00250706)
(-0.0561023 0.0422178 -0.00320705)
(-0.0236784 0.0174523 -0.000780897)
(-0.0294807 0.0226913 -0.000328983)
(-0.0292433 0.0235698 -9.01941e-05)
(-0.0283761 0.0228643 -0.00118422)
(-0.0341741 0.029689 -0.00140929)
(-0.0268453 0.0242493 -0.00210102)
(-0.026241 0.0267427 -0.0015171)
(-0.0260617 0.0248045 -0.00288619)
(-0.0396643 0.0408437 -0.00624858)
(-0.0338947 0.0401805 -0.0039515)
(-0.0403161 0.0361263 -0.00744225)
(-0.0295418 0.0280808 -0.00604694)
(-0.0359532 0.0347676 -0.00860411)
(-0.0380628 0.0342695 -0.0102117)
(-0.0351252 0.0258382 -0.0100147)
(-0.0270736 0.0214696 -0.00891325)
(-0.0670156 0.048219 -0.0143297)
(-0.079361 0.0559392 -0.0185881)
(-0.0711811 0.0425524 -0.0158316)
(-0.0299327 0.0199506 -0.00818548)
(-0.0277556 0.015529 -0.0077465)
(-0.0294877 0.017809 -0.00657105)
(-0.0225359 0.0121232 -0.00427057)
(-0.0267362 0.0114431 -0.00399485)
(-0.0261344 0.0137303 -0.00559217)
(-0.0248608 0.0111908 -0.00507807)
(-0.0243868 0.011349 -0.00292701)
(-0.0334043 0.0153244 -0.00290766)
(-0.0383689 0.017846 -0.00209129)
(-0.0342212 0.0165808 -0.000657138)
(-0.023459 0.0120904 -0.000564445)
(-0.0225291 0.0119754 0.000533091)
(-0.0211651 0.0128821 0.000236622)
(-0.0170918 0.00983153 0.000157442)
(-0.0213186 0.0124584 -0.000697013)
(-0.0217581 0.0133369 -0.000837067)
(-0.0184429 0.011913 -0.000962436)
(-0.0133162 0.0083375 -0.0014184)
(-0.0156437 0.0107944 -0.00174884)
(-0.0207835 0.0115897 -0.0011342)
(-0.0373519 0.0218233 -0.0036636)
(-0.0577875 0.0325391 -0.004898)
(-0.0724216 0.0405207 -0.00783872)
(-0.0756802 0.044471 -0.0103308)
(-0.072622 0.0457079 -0.0133396)
(-0.0659033 0.0441852 -0.0154101)
(-0.0558199 0.0393803 -0.015685)
(-0.0421618 0.0310973 -0.0136978)
(-0.0271774 0.0207392 -0.0097652)
(-0.0108394 0.00848275 -0.00447204)
(-0.00869226 0.007307 -0.00314157)
(-0.0116765 0.00881115 -0.00498405)
(-0.0131705 0.00997938 -0.00560439)
(-0.0185736 0.0135918 -0.00619528)
(-0.0162488 0.0126271 -0.00477196)
(-0.0193006 0.0161611 -0.00343449)
(-0.0256863 0.0208855 -0.00371183)
(-0.0295252 0.0230271 -0.00294476)
(-0.0303363 0.0228051 -0.0018049)
(-0.0345435 0.0266817 -0.00186345)
(-0.033644 0.0267593 -0.002887)
(-0.0234814 0.0175926 -0.00152208)
(-0.0291569 0.0221001 -0.00119814)
(-0.0237634 0.0183439 -0.00230163)
(-0.0227309 0.0189509 -0.00232009)
(-0.0232122 0.0200019 -0.00357966)
(-0.0237454 0.0244345 -0.00221123)
(-0.0280196 0.0240412 -0.00514627)
(-0.0231866 0.0207483 -0.0057683)
(-0.0301669 0.0265402 -0.0088639)
(-0.0380446 0.0324953 -0.0104223)
(-0.0388828 0.0285654 -0.0109373)
(-0.0292275 0.018023 -0.0063076)
(-0.0239458 0.0184519 -0.00651388)
(-0.024442 0.0153919 -0.00671898)
(-0.0198293 0.0114912 -0.00569161)
(-0.0210195 0.0106733 -0.00610937)
(-0.0502928 0.0256913 -0.0100741)
(-0.0628035 0.0353984 -0.0126763)
(-0.0841698 0.0481034 -0.0149677)
(-0.0645252 0.0356599 -0.00896162)
(-0.0809768 0.0482136 -0.0126144)
(-0.0978911 0.0677159 -0.0165669)
(-0.106576 0.0740509 -0.0219347)
(-0.0964102 0.0604228 -0.0188594)
(-0.111986 0.0707541 -0.016274)
(-0.10108 0.06269 -0.0118844)
(-0.08086 0.044303 -0.00863233)
(-0.0618395 0.0318577 -0.00628582)
(-0.0325968 0.0141659 -0.00268528)
(-0.0358804 0.0164246 -0.00148213)
(-0.033121 0.0151845 -0.000107516)
(-0.0635436 0.0335722 -0.00130833)
(-0.0686789 0.0361279 -0.00403621)
(-0.0878423 0.0489627 -0.00591356)
(-0.104513 0.0612118 -0.00974462)
(-0.09865 0.0569949 -0.0132373)
(-0.0826089 0.0435683 -0.0102468)
(-0.068374 0.034328 -0.0111751)
(-0.0525826 0.0240651 -0.00746844)
(-0.0288884 0.0109358 -0.00265809)
(-0.0286163 0.0137656 -0.00420857)
(-0.0244528 0.0105784 -0.00237322)
(-0.0217143 0.00896561 -0.00159215)
(-0.0239436 0.00987578 -0.000925136)
(-0.0217745 0.00927736 -0.000460566)
(-0.0224816 0.0106671 -0.000495752)
(-0.0250724 0.013961 4.86422e-05)
(-0.0220883 0.0114247 -0.0017798)
(-0.0203247 0.0132623 -0.000171255)
(-0.0159531 0.00901634 -0.00043283)
(-0.0187486 0.0113748 -0.000972577)
(-0.0182038 0.0113611 -0.00101799)
(-0.014566 0.00826544 -0.000885445)
(-0.0174716 0.0102246 -0.00160935)
(-0.0197351 0.0104792 -0.00183767)
(-0.0126218 0.00581163 -0.00152048)
(-0.0122075 0.00614219 -0.00152976)
(-0.0161555 0.00771289 -0.00113185)
(-0.0179584 0.0111326 -0.00170612)
(-0.0171012 0.00938768 -0.000656444)
(-0.015332 0.00941975 -0.000925592)
(-0.0108453 0.00679974 -0.00015317)
(-0.0154432 0.0104651 -0.00113466)
(-0.0126986 0.00849495 -0.00176876)
(-0.0303872 0.0195229 -0.00198851)
(-0.03414 0.0229003 -0.00201673)
(-0.0137971 0.00922311 -0.000711901)
(-0.0179173 0.0129166 -0.00124948)
(-0.0192678 0.0144928 -0.00156045)
(-0.0248395 0.0178233 -0.0017985)
(-0.025058 0.0188282 -0.00133314)
(-0.0247404 0.0194592 -0.00219844)
(-0.021925 0.0178155 -0.00291181)
(-0.016607 0.0138529 -0.00306734)
(-0.01699 0.0135824 -0.00306778)
(-0.0220622 0.0172218 -0.00257198)
(-0.0247533 0.018773 -0.00215581)
(-0.0193678 0.0156348 -0.00181494)
(-0.0173085 0.0147285 -0.00229306)
(-0.013157 0.0117418 -0.00250777)
(-0.0134481 0.0111221 -0.00396093)
(-0.0141176 0.0133717 -0.00310847)
(-0.0151659 0.0125293 -0.00471343)
(-0.011051 0.00941807 -0.003985)
(-0.00996194 0.00968964 -0.00302021)
(-0.0109077 0.00915477 -0.00415974)
(-0.007551 0.00664319 -0.00288212)
(-0.00893185 0.00775023 -0.00399899)
(-0.0111748 0.00785599 -0.0048429)
(-0.0115786 0.00789237 -0.00486887)
(-0.012425 0.0090591 -0.00522814)
(-0.010413 0.00777972 -0.00344647)
(-0.0143983 0.010234 -0.00542684)
(-0.0191088 0.0137981 -0.00759408)
(-0.0153711 0.0112528 -0.00537136)
(-0.0202401 0.0144097 -0.0054769)
(-0.0189194 0.0148551 -0.00483115)
(-0.0236727 0.0183196 -0.00538844)
(-0.020631 0.0165887 -0.00353455)
(-0.020903 0.0192859 -0.00282344)
(-0.0268736 0.020904 -0.00664348)
(-0.02063 0.0174449 -0.00535796)
(-0.0282676 0.0224066 -0.00765237)
(-0.0358179 0.0273873 -0.0107101)
(-0.0295676 0.0200893 -0.00769536)
(-0.0213805 0.0148736 -0.00586178)
(-0.018489 0.0119806 -0.00419194)
(-0.0204657 0.011746 -0.00537495)
(-0.0165468 0.00937001 -0.00545941)
(-0.0226749 0.0105023 -0.00443076)
(-0.0227406 0.0134404 -0.00694314)
(-0.0235569 0.0116096 -0.00529675)
(-0.0193966 0.00907296 -0.00489498)
(-0.0189815 0.00876402 -0.00270052)
(-0.0140062 0.00614 -0.0025301)
(-0.0196446 0.00930428 -0.0014922)
(-0.0259434 0.0115505 -0.00153039)
(-0.0276472 0.0136194 -0.00110912)
(-0.0237679 0.0123588 -0.000312215)
(-0.0159033 0.00826225 -0.000643273)
(-0.0158846 0.00925612 0.000249073)
(-0.022788 0.0132624 -0.00139985)
(-0.0192849 0.0127351 -0.000947097)
(-0.0150256 0.00851101 -0.0014224)
(-0.0165826 0.0101786 -0.0012247)
(-0.0142024 0.0076954 -0.00114184)
(-0.0175202 0.00970757 -0.00211397)
(-0.0220591 0.0105138 -0.00291122)
(-0.0152913 0.00583884 -0.00139723)
(-0.0151844 0.00625985 -0.00107389)
(-0.0140166 0.00502434 0.000366452)
(-0.0119827 0.00379072 0.00115524)
(-0.00953742 0.00415486 0.000644614)
(-0.0136013 0.00689916 -0.000130748)
(-0.0106264 0.00542853 -0.000944825)
(-0.0272453 0.0124738 0.00029465)
(-0.0314436 0.015334 0.00198783)
(-0.0121993 0.00646486 0.000994898)
(-0.00900043 0.00493259 0.000588347)
(-0.0123423 0.00788764 -0.000559529)
(-0.0115297 0.00673332 -0.000608138)
(-0.0250555 0.0148208 4.4371e-05)
(-0.0256008 0.0166695 0.000555371)
(-0.00970207 0.00604552 0.000462461)
(-0.0127067 0.00930127 8.83348e-05)
(-0.0141527 0.0107854 -0.000759426)
(-0.0182332 0.0141196 -0.00124987)
(-0.0162983 0.0133948 -0.00153081)
(-0.0125834 0.0109702 -0.00193659)
(-0.0104652 0.00956272 -0.00204)
(-0.0114559 0.0114762 -0.00206907)
(-0.0114224 0.010545 -0.00304194)
(-0.00871584 0.00862297 -0.00205081)
(-0.00828759 0.00888901 -0.0020671)
(-0.00800774 0.00815707 -0.00241703)
(-0.00614056 0.00621094 -0.00199484)
(-0.00460638 0.00422629 -0.00204384)
(-0.0063767 0.00499345 -0.00304051)
(-0.00778187 0.00511294 -0.00328195)
(-0.00775086 0.00511469 -0.00300689)
(-0.0117066 0.00702304 -0.00483824)
(-0.00968483 0.00480567 -0.00305226)
(-0.011011 0.00641693 -0.00382397)
(-0.0108595 0.00716559 -0.00348239)
(-0.0181699 0.0098228 -0.0055147)
(-0.0234722 0.0159989 -0.00934796)
(-0.0231587 0.0150213 -0.00841141)
(-0.0201393 0.0140189 -0.00594823)
(-0.0267936 0.0184644 -0.00678504)
(-0.0484797 0.0340689 -0.0127788)
(-0.0517567 0.0352593 -0.0144807)
(-0.0498903 0.0321169 -0.0135287)
(-0.0494337 0.029251 -0.0136763)
(-0.0423697 0.023199 -0.0115081)
(-0.0498451 0.0297631 -0.0149082)
(-0.0208263 0.0122939 -0.00715067)
(-0.024223 0.0155092 -0.00772017)
(-0.0545877 0.0350998 -0.0164926)
(-0.0520453 0.0355341 -0.0161675)
(-0.051603 0.0335872 -0.0164425)
(-0.049298 0.0293596 -0.0167644)
(-0.029866 0.018042 -0.0103994)
(-0.0138979 0.00940279 -0.00527925)
(-0.0178701 0.0104058 -0.00599586)
(-0.0162327 0.00860333 -0.00551417)
(-0.01823 0.00952829 -0.0051425)
(-0.0143912 0.00707822 -0.00339135)
(-0.0147445 0.00666848 -0.00360812)
(-0.0167519 0.00713855 -0.00209404)
(-0.0179684 0.00882287 -0.00256377)
(-0.015539 0.00730988 -0.00197388)
(-0.0139702 0.00623264 -0.00127616)
(-0.0164094 0.00783173 -0.00104495)
(-0.0169898 0.0088104 -0.000565352)
(-0.0147093 0.00787568 -0.000366149)
(-0.016026 0.00977082 -0.0001061)
(-0.0181862 0.012144 -0.000188741)
(-0.0166605 0.0104994 -0.00124452)
(-0.0148951 0.0102944 -0.000876082)
(-0.011226 0.00740494 -0.000482277)
(-0.0135753 0.00868787 -0.000462305)
(-0.0122216 0.00623005 -0.000281288)
(-0.0168345 0.00867026 -0.0018348)
(-0.0226493 0.00910377 -0.0030646)
(-0.0166476 0.00454298 -0.00122748)
(-0.0174619 0.00547516 -0.000927776)
(-0.0171412 0.00373898 0.00116285)
(-0.0159632 0.00393468 0.00112838)
(-0.0134584 0.00278251 0.00295198)
(-0.0105297 0.00209347 0.00290454)
(-0.0073389 0.00183317 0.00172923)
(-0.0105926 0.0040029 0.00142254)
(-0.00951725 0.00302798 0.00158386)
(-0.0226168 0.00793583 0.00304478)
(-0.0236281 0.0103148 0.00446892)
(-0.00840915 0.00321408 0.00259752)
(-0.00582575 0.00257727 0.00148503)
(-0.00811766 0.00511394 0.000809484)
(-0.0084492 0.00430494 0.00165701)
(-0.0181028 0.0100849 0.00244318)
(-0.0170491 0.0108969 0.00249691)
(-0.00552116 0.00307805 0.00155675)
(-0.00766443 0.00568972 0.00133592)
(-0.00890058 0.00648164 0.000430455)
(-0.011219 0.00927561 -0.000116283)
(-0.0126612 0.0108204 -0.00115608)
(-0.00983655 0.0091389 -0.00153853)
(-0.00874567 0.00806194 -0.000640959)
(-0.00751928 0.00716781 -0.000333428)
(-0.00860813 0.00938758 -0.00113107)
(-0.00743335 0.00759225 -0.00113505)
(-0.00447349 0.00472474 -0.000732826)
(-0.00371539 0.00389398 -0.000883135)
(-0.00267364 0.00277723 -0.000987122)
(-0.0021137 0.00219212 -0.000380386)
(-0.00319275 0.00279388 -0.00106667)
(-0.00427256 0.003139 -0.00160942)
(-0.00502457 0.00286024 -0.00161097)
(-0.00576142 0.00212042 -0.00215256)
(-0.00553562 0.00205222 -0.00127184)
(-0.00880822 0.00391843 -0.00261072)
(-0.0069736 0.00320984 -0.00209109)
(-0.00917169 0.00392679 -0.00238018)
(-0.0105105 0.0046769 -0.0023828)
(-0.0114793 0.00492072 -0.0028128)
(-0.0136846 0.00670259 -0.00398738)
(-0.0117271 0.00650065 -0.00377194)
(-0.0134965 0.00798696 -0.00511475)
(-0.0291051 0.0161742 -0.00996684)
(-0.0273032 0.0131867 -0.00771578)
(-0.0260962 0.0104715 -0.00561831)
(-0.0241326 0.00726735 -0.00386295)
(-0.00885257 0.00256542 -0.00166717)
(-0.00962197 0.00310804 -0.00119624)
(-0.0161864 0.00635062 -0.00165289)
(-0.0156305 0.00585219 -0.00152192)
(-0.0151371 0.00561962 -0.00156693)
(-0.0115957 0.0051126 -0.00175757)
(-0.0293418 0.012531 -0.00475121)
(-0.0344616 0.0165262 -0.00726099)
(-0.0395171 0.0199337 -0.0101853)
(-0.0442519 0.0235542 -0.0126082)
(-0.0636473 0.0348909 -0.0160543)
(-0.0525349 0.025558 -0.0109234)
(-0.0437868 0.0212274 -0.00795236)
(-0.0344785 0.0162038 -0.00568458)
(-0.0500049 0.023891 -0.00874971)
(-0.0421233 0.0185681 -0.00520603)
(-0.035226 0.0140204 -0.00339251)
(-0.0139087 0.00590803 -0.00110317)
(-0.0194301 0.00945462 -0.00100266)
(-0.0238464 0.0125741 -0.000989003)
(-0.0239915 0.0137123 -0.000610925)
(-0.0198424 0.0121268 -0.000256418)
(-0.013111 0.00798107 -0.000422988)
(-0.0135843 0.00865543 9.52414e-05)
(-0.0195113 0.0113673 -0.00209617)
(-0.0249847 0.0134748 -0.00414097)
(-0.026758 0.0115348 -0.00441211)
(-0.0244721 0.00754698 -0.00349983)
(-0.0197305 0.00447737 -0.00171609)
(-0.012696 0.00192825 -0.000663438)
(-0.0134973 0.00133467 0.000488982)
(-0.0168151 0.00290012 -7.371e-05)
(-0.0340553 0.00533114 -0.000491834)
(-0.0459629 0.00820506 0.00195505)
(-0.0513067 0.0143355 -0.00157872)
(-0.0507235 0.0225862 -0.00847766)
(-0.0480339 0.0286741 -0.0147692)
(-0.0427439 0.0309122 -0.0181459)
(-0.0345077 0.0279945 -0.017563)
(-0.0238707 0.0205886 -0.0135452)
(-0.0130251 0.0112336 -0.00765102)
(-0.00623557 0.00475865 -0.00393746)
(-0.000893724 0.000489294 0.000150874)
(-0.00102587 0.000969757 -0.000864885)
(-0.00246231 0.0019174 -0.000724801)
(-0.00383265 0.00207906 -0.00163887)
(-0.00517557 0.00188149 -0.00214683)
(-0.00315148 0.000810627 -0.00162487)
(-0.00379711 0.000156224 -0.00135431)
(-0.0063072 0.00108255 -0.00164391)
(-0.00627657 0.00112415 -0.00108464)
(-0.00736828 0.00190318 -0.00138801)
(-0.00719646 0.000819239 -0.000446574)
(-0.0137444 0.00295245 -0.000454884)
(-0.0146134 0.00372501 0.00028533)
(-0.0129366 0.00316424 -0.000910837)
(-0.0140973 0.00454704 3.73292e-05)
(-0.0215841 0.00828306 -0.000330005)
(-0.0178241 0.00689595 -0.000295551)
(-0.0192998 0.00666461 -0.000689761)
(-0.0147643 0.00630398 -0.000852389)
(-0.0170144 0.00843043 -0.000965399)
(-0.0165363 0.00912628 -0.000666067)
(-0.0138337 0.00819411 -0.00027729)
(-0.0142568 0.00909901 -0.000201558)
(-0.0157824 0.0106527 -0.000943485)
(-0.0143531 0.0087356 -0.00176229)
(-0.0216832 0.0120185 -0.00449257)
(-0.0273329 0.0119921 -0.00560147)
(-0.0284108 0.00882765 -0.00465637)
(-0.0239058 0.00458303 -0.00216792)
(-0.0161026 0.00153643 -3.56689e-05)
(-0.0171703 0.000679851 0.00139614)
(-0.0154615 0.000284452 0.00348354)
(-0.0131546 0.000316943 0.00387193)
(-0.0109949 0.000652777 0.00251052)
(-0.0147585 0.00242305 0.00152592)
(-0.0120736 0.0010543 0.00166737)
(-0.0297096 0.00397521 0.00359838)
(-0.0341563 0.00699157 0.00560234)
(-0.0133452 0.00244597 0.00363463)
(-0.0104068 0.00225074 0.00474656)
(-0.00706612 0.00150507 0.00320838)
(-0.0106541 0.0030223 0.00340009)
(-0.0111986 0.00336814 0.00361917)
(-0.00793405 0.00284143 0.00398706)
(-0.00500234 0.00161818 0.00239707)
(-0.00629468 0.00302843 0.00253662)
(-0.00797859 0.00382989 0.00294833)
(-0.00637639 0.00407152 0.00247708)
(-0.00453179 0.0029548 0.000903786)
(-0.00611638 0.00516028 0.000737753)
(-0.00692464 0.00564 -0.000415796)
(-0.0184086 0.0151334 -0.00120318)
(-0.0294632 0.024755 -0.0043109)
(-0.0210498 0.0185473 -0.00451743)
(-0.0313907 0.0262523 -0.0090813)
(-0.0202957 0.0170426 -0.00661986)
(-0.0225764 0.0181083 -0.00822086)
(-0.0284154 0.0192394 -0.0105808)
(-0.0309783 0.0189245 -0.0111571)
(-0.0307153 0.0155909 -0.0099132)
(-0.0318942 0.0123423 -0.00887539)
(-0.0174633 0.00652124 -0.00496322)
(-0.0185913 0.00478256 -0.00399462)
(-0.0179092 0.00272773 -0.00262158)
(-0.00632314 0.000170578 -0.000296078)
(-0.00931379 0.00046813 -9.25376e-05)
(-0.0102729 -0.000643443 0.000324912)
(-0.0120819 0.000977252 0.00191084)
(-0.0123808 0.00183788 0.000890777)
(-0.0131081 0.00286274 0.00135156)
(-0.0121802 0.00297868 0.000407446)
(-0.0176909 0.00630029 0.00141507)
(-0.0236211 0.00946198 0.00074791)
(-0.0267903 0.0127072 8.3307e-05)
(-0.0248819 0.0134414 -0.00146879)
(-0.0187505 0.0109077 -0.00181616)
(-0.0188387 0.0106374 -0.00335014)
(-0.0202563 0.0133537 -0.00280474)
(-0.0185433 0.00926003 -0.00374513)
(-0.026395 0.010822 -0.00539341)
(-0.0288097 0.0078222 -0.00380819)
(-0.0247548 0.00280176 -0.00132827)
(-0.016618 -0.000105996 0.000670519)
(-0.0174657 -0.00134022 0.00215998)
(-0.0154723 -0.00179319 0.00531739)
(-0.0130573 -0.00163511 0.00470772)
(-0.0108767 -0.000888589 0.00652734)
(-0.00816935 -0.000228562 0.00381351)
(-0.00786108 3.76132e-05 0.00358341)
(-0.0126186 0.00176383 0.00385911)
(-0.010129 0.000451221 0.00507193)
(-0.0222039 0.00339452 0.00538008)
(-0.0247457 0.00772284 0.00447403)
(-0.00933849 0.00210501 0.00362994)
(-0.00701186 0.00253498 0.00404806)
(-0.00479728 0.00172894 0.00200292)
(-0.0067884 0.00312589 0.00246181)
(-0.00781166 0.00302334 0.00326583)
(-0.00753296 0.00388865 0.00291446)
(-0.00440553 0.0019417 0.00201501)
(-0.00510357 0.00325871 0.00250939)
(-0.00371829 0.00297836 0.00180658)
(-0.00448155 0.00304103 0.00161503)
(-0.00507213 0.00471215 0.000804348)
(-0.00547276 0.00463856 0.00125724)
(-0.00619057 0.00597225 0.000418787)
(-0.00384853 0.00383904 -0.000598661)
(-0.00288354 0.00326729 0.000309946)
(-0.00254886 0.00262258 0.000528074)
(-0.002461 0.00242331 -0.000325768)
(-0.00161998 0.00213239 5.38827e-05)
(-0.00160998 0.0016514 0.000132396)
(-0.000423366 0.000854318 -0.000357632)
(-0.000749839 0.00114061 0.00043058)
(1.21983e-05 0.00070709 -0.000667986)
(-0.000195804 0.00023733 -0.000861797)
(-0.000766639 0.000119741 -0.000956137)
(-0.00145232 4.48312e-05 -0.000226154)
(-0.00209545 0.000652088 -0.00146323)
(-0.00794497 0.00333998 -0.00431322)
(-0.00936788 0.0026514 -0.00395476)
(-0.0018597 -0.000148828 -0.000104981)
(-0.00263402 -0.000304785 -0.000123395)
(-0.00512501 -0.000693338 -0.000942111)
(-0.00786819 0.000389898 -0.000771492)
(-0.00577539 -5.64298e-05 -0.000445262)
(-0.00525277 -0.00104393 0.000449953)
(-0.00475409 -0.0011068 0.000952233)
(-0.00964807 -0.000745863 0.00161651)
(-0.011039 0.000891158 0.00328558)
(-0.0114867 0.000800834 0.00289688)
(-0.0179195 0.00376119 0.00286734)
(-0.0160105 0.00443638 0.00379748)
(-0.0170844 0.00359745 0.00208626)
(-0.0306417 0.00806178 -0.000287428)
(-0.0432931 0.013293 -0.00443207)
(-0.0296526 0.00593012 -0.00175932)
(-0.0265014 0.00531032 4.55916e-05)
(-0.0198691 0.00500179 0.000724653)
(-0.00863735 0.000776172 0.00418387)
(-0.00867653 0.000206575 0.00367097)
(-0.0134648 0.00200652 0.00573554)
(-0.0183151 0.00472049 0.0061332)
(-0.021886 0.00864001 0.00582922)
(-0.0234252 0.0111117 0.00386777)
(-0.0221865 0.0107226 0.00280284)
(-0.0163367 0.00769317 -0.000193736)
(-0.0177969 0.00723115 -0.000123398)
(-0.0163687 0.00672543 -0.00207694)
(-0.0133927 0.00348466 -0.00141666)
(-0.0135113 -0.000345788 -0.0021573)
(-0.00969888 -0.00561385 -0.00107842)
(-0.00466427 -0.00794305 0.00147024)
(-0.00138032 -0.00709802 0.00245466)
(-0.000727403 -0.00793965 0.00209821)
(-0.00842819 -0.00566717 0.00241452)
(-0.0135255 -0.00569961 0.00257371)
(-0.0118635 -0.00520007 0.00604567)
(-0.00552935 -0.00325058 0.00481847)
(-0.00444127 -0.00302097 0.00339557)
(-0.00975036 -0.00168169 0.00400318)