/*--------------------------------*- C++ -*----------------------------------*\
| =========                 |                                                 |
| \\      /  F ield         | OpenFOAM: The Open Source CFD Toolbox           |
|  \\    /   O peration     | Version:  5.0                                   |
|   \\  /    A nd           | Web:      www.OpenFOAM.org                      |
|    \\/     M anipulation  |                                                 |
\*---------------------------------------------------------------------------*/
FoamFile
{
    version     2.0;
    format      ascii;
    class       volVectorField;
    location    "60";
    object      URest;
}
// * * * * * * * * * * * * * * * * * * * * * * * * * * * * * * * * * * * * * //

dimensions      [0 1 -1 0 0 0 0];

internalField   nonuniform List<vector> 
36178
(
(-0.0373824 0.033689 0.000874415)
(-0.0251971 0.0241124 0.00081585)
(-0.024387 0.0265696 0.000922398)
(-0.0285421 0.0262218 0.000488238)
(-0.0347109 0.0326059 0.00190061)
(-0.0329468 0.0278013 -0.000463751)
(-0.0426071 0.0395805 0.0014301)
(-0.0432015 0.0400678 0.00153652)
(-0.0337906 0.0336276 0.00160094)
(-0.0206107 0.0237652 0.000521861)
(-0.0199516 0.0268506 -0.00146623)
(-0.0255072 0.0251629 0.00206865)
(-0.0343939 0.0351683 0.000512777)
(-0.0329463 0.0354391 0.000916948)
(-0.0375921 0.0367175 6.94839e-05)
(-0.0350079 0.0353103 7.74797e-05)
(-0.0382882 0.0343874 -0.000194951)
(-0.0282645 0.027162 0.00112017)
(-0.0349701 0.0319672 0.00167428)
(-0.033291 0.029423 0.00109332)
(-0.0235424 0.0220497 0.000110601)
(-0.0243526 0.0228711 0.00255385)
(-0.0360549 0.0326205 0.00175514)
(-0.0413886 0.0380581 0.00239765)
(-0.0364046 0.0354141 0.00254615)
(-0.0263274 0.0288566 0.00117491)
(-0.0158623 0.0188523 0.000131826)
(-0.0154794 0.020131 -0.00186388)
(-0.0210656 0.0213472 0.00197242)
(-0.0177865 0.0213041 -6.59055e-05)
(-0.0154781 0.0211996 -0.000577517)
(-0.0188715 0.0216918 -0.000181426)
(-0.0190122 0.0233883 -0.00192036)
(-0.0359721 0.0377067 -0.00107472)
(-0.0345339 0.0376544 -0.000693898)
(-0.0394906 0.0390548 -7.14954e-06)
(-0.0365992 0.0374512 -0.000264122)
(-0.0402631 0.0366045 -0.000361632)
(-0.0346735 0.0297598 -0.000505291)
(-0.0302759 0.0301767 -0.0015743)
(-0.0284543 0.0310336 -0.0038475)
(-0.0259544 0.0248485 -0.00010293)
(-0.0300051 0.025019 -0.00011389)
(-0.0306887 0.026448 -0.0015665)
(-0.0374001 0.0323686 -0.000376755)
(-0.0360532 0.0315524 0.000530677)
(-0.0260917 0.0241495 0.00146645)
(-0.0251562 0.0212252 0.00156034)
(-0.0334037 0.0280843 0.00239133)
(-0.0317768 0.0283305 0.00228026)
(-0.0272301 0.0261859 0.00125119)
(-0.0198137 0.020695 0.000787216)
(-0.0133174 0.014066 0.000309998)
(-0.0131938 0.0151648 -0.00165887)
(-0.0174977 0.016706 0.00115558)
(-0.014593 0.0163242 -0.000789815)
(-0.0135317 0.0152805 -0.000743622)
(-0.0156723 0.0180896 -0.000734199)
(-0.0162181 0.020702 -0.00172473)
(-0.0159507 0.023374 -0.00132031)
(-0.0195348 0.0257828 -0.00147422)
(-0.0241404 0.0346714 -0.00128216)
(-0.029978 0.0329697 -0.00341545)
(-0.0284353 0.0337595 -0.00225609)
(-0.0332216 0.0326519 -0.000919461)
(-0.0309936 0.0314028 -0.000444796)
(-0.0301873 0.0264523 -0.00207144)
(-0.0700683 0.0678762 -0.00426017)
(-0.0888635 0.0811965 0.00200531)
(-0.0699468 0.0631973 0.000772165)
(-0.0351581 0.0297805 0.00069644)
(-0.0342334 0.029008 0.0016129)
(-0.0260804 0.0220901 0.00148623)
(-0.0562904 0.0518827 0.00241974)
(-0.0683859 0.0616993 0.00207089)
(-0.0874063 0.0769594 0.000271343)
(-0.0895849 0.0789314 -0.00212199)
(-0.0791363 0.0712291 -0.00437698)
(-0.0581916 0.0535308 -0.00416632)
(-0.0242689 0.0233732 -0.00243121)
(-0.033368 0.0233692 0.000719906)
(-0.029667 0.0273907 -0.00665767)
(-0.0289673 0.0229952 -0.00202688)
(-0.0326839 0.0217914 -0.00176625)
(-0.0304459 0.0221388 -0.00392778)
(-0.0373103 0.0274858 -0.00179599)
(-0.0340026 0.0262608 0.000164281)
(-0.0244373 0.0198657 0.00208038)
(-0.0229385 0.0160647 0.000685233)
(-0.0256033 0.0215931 0.00137327)
(-0.0169183 0.016459 0.000344831)
(-0.0110837 0.0099216 -0.000304542)
(-0.0101108 0.0101238 0.000384295)
(-0.0133554 0.0151004 -7.87941e-05)
(-0.0166831 0.0153254 0.000292535)
(-0.0196151 0.0158535 -0.000156415)
(-0.0321818 0.0282417 0.00040026)
(-0.0514432 0.0445218 0.00214486)
(-0.0641894 0.0543582 -0.0017731)
(-0.0665305 0.0562235 -0.00463498)
(-0.0604634 0.0523641 -0.00717218)
(-0.0461015 0.0410568 -0.00716627)
(-0.0210392 0.0196741 -0.00490157)
(-0.0232613 0.0225636 -0.00582852)
(-0.0236786 0.0250661 -0.00499481)
(-0.0184701 0.0212279 -0.00351968)
(-0.0211583 0.0226126 -0.00112075)
(-0.0337282 0.0310381 -0.00499378)
(-0.0290474 0.0303321 -0.00181389)
(-0.0282249 0.0332442 0.00064929)
(-0.0346857 0.0281869 -0.00392576)
(-0.025669 0.024224 -0.00230135)
(-0.0328313 0.0320672 -0.00339635)
(-0.0327547 0.0300336 -0.00509696)
(-0.0262459 0.0203688 -0.0041476)
(-0.0183975 0.0137587 -0.00409599)
(-0.0199463 0.0146496 -0.00271042)
(-0.0208607 0.0137467 -0.00167731)
(-0.0171316 0.0145886 -0.00390401)
(-0.0171156 0.0124213 -0.0022742)
(-0.0182802 0.0128817 -0.00181439)
(-0.021922 0.0142797 -0.000886764)
(-0.0206076 0.0136409 1.47422e-05)
(-0.0212349 0.0139157 -0.000278947)
(-0.0215477 0.0170224 0.00141604)
(-0.0186991 0.0137839 0.00034468)
(-0.01512 0.013434 0.000879468)
(-0.0108337 0.00870196 0.000530837)
(-0.0113271 0.0102464 0.000703756)
(-0.00915084 0.00792345 0.000382317)
(-0.0119227 0.0121751 -0.000314719)
(-0.0149622 0.0123926 0.000386744)
(-0.0158769 0.0155475 0.000605741)
(-0.0110891 0.0105543 4.77808e-05)
(-0.0110354 0.0117412 -0.00146383)
(-0.0139721 0.0127467 0.000678628)
(-0.0122956 0.0126499 -0.00077135)
(-0.0112922 0.011855 -0.000553814)
(-0.0136658 0.0139129 -0.000776534)
(-0.0150175 0.0160631 -0.00140438)
(-0.0148644 0.0174648 -0.00168047)
(-0.0130433 0.0170073 -0.00201809)
(-0.0143049 0.0173654 -0.000859043)
(-0.025479 0.0292716 -0.00322392)
(-0.0179139 0.0198834 -0.00314771)
(-0.017271 0.0248025 -0.00237762)
(-0.0419215 0.0471019 -0.00464255)
(-0.0570355 0.0600731 -0.00567644)
(-0.0262629 0.0278545 -0.00271361)
(-0.0325831 0.0297955 -0.00605651)
(-0.0281068 0.0258073 -0.00658618)
(-0.0223779 0.017865 -0.00484938)
(-0.0150851 0.0114492 -0.00270093)
(-0.0172785 0.011195 -0.000605729)
(-0.0160366 0.0129842 -0.00251995)
(-0.0156914 0.0108203 -0.00126575)
(-0.016384 0.0114345 -0.00152003)
(-0.0199973 0.0142024 -0.000924611)
(-0.0191265 0.0131434 0.000188797)
(-0.0135199 0.00966706 0.000240199)
(-0.013455 0.00953452 0.00111132)
(-0.0168427 0.0125704 0.00125278)
(-0.0140169 0.0121243 0.000920277)
(-0.0099977 0.00800037 0.000219047)
(-0.01019 0.00885417 0.000362746)
(-0.0081504 0.00666081 3.55999e-05)
(-0.0102714 0.00973366 -0.000451236)
(-0.0130606 0.0100062 7.26461e-05)
(-0.0135871 0.0125559 -0.000142103)
(-0.00923561 0.00837804 -0.000319255)
(-0.00911132 0.00900112 -0.00115816)
(-0.0114342 0.00996787 0.000390516)
(-0.0101723 0.00977648 -0.000640528)
(-0.00949417 0.00908547 -0.000301138)
(-0.01114 0.01066 -0.000566989)
(-0.0129072 0.0124976 -0.000831203)
(-0.012927 0.0135939 -0.000926885)
(-0.0121672 0.0129903 -0.00116979)
(-0.0131542 0.0152952 -0.00141724)
(-0.00935692 0.0104678 -0.000763656)
(-0.015983 0.0174186 -0.00278797)
(-0.0137182 0.0170717 -0.00230678)
(-0.0140661 0.0202925 -0.00119832)
(-0.0144978 0.0175176 -0.00263124)
(-0.0183167 0.0188143 -0.00414234)
(-0.0137079 0.0126433 -0.00218947)
(-0.0133756 0.0147978 -0.00232964)
(-0.0142839 0.0136187 -0.00306943)
(-0.0183541 0.0160429 -0.00398826)
(-0.0143105 0.0112916 -0.00224856)
(-0.0100759 0.00767758 -0.00223298)
(-0.0107873 0.00813569 -0.00121069)
(-0.0163133 0.012144 -0.00192368)
(-0.0137298 0.00949987 -0.000352595)
(-0.0168998 0.0106958 -0.000577458)
(-0.0333221 0.023656 -0.00250393)
(-0.047148 0.0363855 -0.00460081)
(-0.0347702 0.0267879 -0.00462701)
(-0.0405295 0.033612 -0.00573057)
(-0.0328715 0.0254437 -0.00406892)
(-0.0255215 0.0186018 -0.00323932)
(-0.0132736 0.00806224 -0.00109228)
(-0.013032 0.00862029 -0.00247692)
(-0.0115435 0.00714746 -0.00176672)
(-0.0107341 0.00716888 -0.000551717)
(-0.0132212 0.00831401 -0.000347209)
(-0.0122501 0.00781355 0.00026507)
(-0.0121759 0.00752581 0.000221165)
(-0.0141498 0.00962374 0.000908986)
(-0.0122029 0.00757173 0.000131749)
(-0.0108215 0.00814489 0.000654073)
(-0.00853702 0.00562304 -5.18456e-06)
(-0.00927134 0.00661812 0.00015371)
(-0.00819083 0.00561522 0.000114633)
(-0.00591985 0.00387469 -0.000113693)
(-0.00740354 0.00571782 -0.000415661)
(-0.00939905 0.00592918 -0.000113223)
(-0.00867898 0.00735482 -0.000424124)
(-0.0109626 0.00775801 -5.03859e-05)
(-0.00694673 0.00508851 -0.000101944)
(-0.00929686 0.00704135 0.000124784)
(-0.00985074 0.00742935 0.000325159)
(-0.00818394 0.00623351 0.000650073)
(-0.0119689 0.0072064 -4.43961e-05)
(-0.0109699 0.00897437 0.00088608)
(-0.0114144 0.00845734 0.00089108)
(-0.0144065 0.00863126 -0.000491474)
(-0.0131982 0.0104061 0.00153797)
(-0.0116224 0.00838598 0.00104435)
(-0.0117583 0.00800338 0.000726274)
(-0.0127251 0.00818942 -0.000345522)
(-0.0115461 0.0081043 -5.14667e-05)
(-0.0112741 0.00786981 0.000590077)
(-0.0263038 0.0187605 0.000661165)
(-0.0272709 0.0195736 -0.000795637)
(-0.0391816 0.0274467 -0.00236979)
(-0.034234 0.0236519 -0.0032516)
(-0.0253576 0.0161909 -0.00244357)
(-0.0125556 0.00663497 -0.00118574)
(-0.0124695 0.00702796 -0.00154823)
(-0.014682 0.00842412 -0.000871717)
(-0.0131068 0.00763671 3.72006e-05)
(-0.00903732 0.00544067 7.5876e-05)
(-0.00856464 0.00526977 0.000624796)
(-0.00825929 0.00559481 0.000449462)
(-0.00654887 0.00411956 0.000319385)
(-0.00830137 0.00520464 0.00010142)
(-0.0082157 0.00513128 9.39168e-06)
(-0.00689204 0.00448911 -8.42159e-05)
(-0.00482566 0.00319216 -0.000212937)
(-0.00561425 0.00413259 -0.000451718)
(-0.00758044 0.004646 -0.000112691)
(-0.00800935 0.00579839 -0.00022442)
(-0.00511923 0.00373005 -0.000469313)
(-0.004691 0.00332842 -0.000130018)
(-0.00584367 0.00448826 -0.000470183)
(-0.00652816 0.0048651 -0.000544541)
(-0.0079236 0.00565812 -0.000242555)
(-0.00652155 0.00460291 -0.000198372)
(-0.00964 0.00735527 -0.000263937)
(-0.00770245 0.00625978 -0.000385285)
(-0.00762001 0.00684949 -0.00106654)
(-0.00943548 0.00756905 9.74441e-05)
(-0.00842677 0.0074227 -0.000508638)
(-0.00793114 0.00671171 -0.000130172)
(-0.00927555 0.00819947 -0.000461774)
(-0.0107538 0.00947449 -0.000605692)
(-0.0110125 0.0104813 -0.00060898)
(-0.0105762 0.0101399 -0.000919309)
(-0.0122731 0.011965 -0.000833906)
(-0.00921656 0.00907232 -0.000767853)
(-0.00912674 0.00979623 -0.0011404)
(-0.0090207 0.00968064 -0.00171896)
(-0.0126118 0.0137036 -0.00210216)
(-0.0119211 0.0111399 -0.00221457)
(-0.00855777 0.00868466 -0.00172238)
(-0.0088928 0.00903384 -0.00129734)
(-0.010508 0.00927287 -0.00222249)
(-0.00978489 0.00824061 -0.00233981)
(-0.0122886 0.011435 -0.00292315)
(-0.00979814 0.00833742 -0.00245316)
(-0.0115697 0.00683141 -0.00181275)
(-0.0111513 0.0079446 -0.00309832)
(-0.011647 0.00710106 -0.00231748)
(-0.00887612 0.00501151 -0.00215081)
(-0.00850446 0.00470811 -0.00126105)
(-0.0108757 0.0051139 -0.00124114)
(-0.0105025 0.00580481 -0.00218735)
(-0.00917766 0.00465381 -0.0012716)
(-0.00832355 0.00423109 -0.000945958)
(-0.00934735 0.00478558 -0.000611904)
(-0.0085193 0.0044436 -0.000123839)
(-0.00923163 0.00480498 -9.27983e-05)
(-0.0103759 0.00598403 0.000205534)
(-0.00933486 0.00480978 -0.000341167)
(-0.00819736 0.00523922 0.000226962)
(-0.00669192 0.00376152 -0.000110269)
(-0.00733825 0.00465164 1.16118e-05)
(-0.00683979 0.00440598 -6.09158e-05)
(-0.00534075 0.00321943 4.25121e-05)
(-0.00647739 0.00442509 -0.000403382)
(-0.00694261 0.00465476 -0.000536981)
(-0.00448238 0.00293318 -0.000405549)
(-0.00421052 0.00301979 -0.000772294)
(-0.00557991 0.00343607 -0.000243707)
(-0.00621059 0.00446847 -0.000585488)
(-0.00541616 0.00362732 -0.00058538)
(-0.00510292 0.00353133 -0.000496025)
(-0.00629364 0.00425947 -0.000729106)
(-0.00661007 0.00470242 -0.00053299)
(-0.00801571 0.00612764 -0.000581855)
(-0.00939527 0.00735622 -0.000770653)
(-0.00633898 0.00479842 -0.000343057)
(-0.00762244 0.00621232 -0.000391808)
(-0.00700988 0.00574815 -0.000701703)
(-0.0166715 0.0126197 -0.00116115)
(-0.0190189 0.014324 -0.00155576)
(-0.00734542 0.00537903 -0.00053127)
(-0.00909214 0.00713312 -0.000376474)
(-0.00929985 0.00758214 -0.000365827)
(-0.0090188 0.00728393 -0.000693755)
(-0.0103684 0.00918374 -0.000735435)
(-0.00809331 0.00736234 -0.000803943)
(-0.00821539 0.00808867 -0.000872551)
(-0.00809757 0.00741695 -0.00129999)
(-0.0122587 0.0123903 -0.00230327)
(-0.0102833 0.0117771 -0.00150898)
(-0.0122776 0.0109705 -0.00242293)
(-0.00889106 0.00818622 -0.00185172)
(-0.0108421 0.01001 -0.00256409)
(-0.0113247 0.00995898 -0.00291084)
(-0.0103809 0.00758971 -0.00295121)
(-0.00800895 0.0062867 -0.00242692)
(-0.0218334 0.0160711 -0.00474695)
(-0.0263085 0.0189959 -0.00621058)
(-0.0234672 0.0143921 -0.00538005)
(-0.00900374 0.00592911 -0.00244251)
(-0.00836873 0.00476905 -0.00229086)
(-0.00877451 0.00528598 -0.00207177)
(-0.00664787 0.00355514 -0.001399)
(-0.00807943 0.00366115 -0.00148767)
(-0.00800911 0.00424619 -0.00193352)
(-0.00756732 0.00356406 -0.00178645)
(-0.0071944 0.00333871 -0.00112094)
(-0.0100135 0.00456015 -0.00121799)
(-0.0114679 0.00524258 -0.00093628)
(-0.0100276 0.0047239 -0.000377052)
(-0.00668538 0.00329598 -0.000283091)
(-0.00642602 0.00339766 0.00011707)
(-0.00597962 0.00351181 6.08029e-05)
(-0.00486563 0.00274765 3.52161e-05)
(-0.00623527 0.00354368 -0.000213049)
(-0.00632274 0.00381906 -0.000245752)
(-0.00535089 0.00348453 -0.000271747)
(-0.00383104 0.00245438 -0.000390918)
(-0.00460725 0.00324008 -0.000566322)
(-0.00596972 0.0035157 -0.000360497)
(-0.0114295 0.00705759 -0.00121857)
(-0.0185564 0.011457 -0.00194063)
(-0.0253862 0.0156918 -0.00358664)
(-0.028693 0.0180612 -0.00477256)
(-0.0286098 0.0186789 -0.0057534)
(-0.0258477 0.0176424 -0.00637293)
(-0.0212634 0.0150998 -0.0063576)
(-0.0154212 0.0112801 -0.00538507)
(-0.00952825 0.0071087 -0.00365004)
(-0.00364443 0.00272984 -0.00154334)
(-0.00274294 0.00217472 -0.00103522)
(-0.00352376 0.0025368 -0.00163248)
(-0.00407988 0.00294996 -0.00177744)
(-0.00552727 0.00395689 -0.00199182)
(-0.00497664 0.00373589 -0.00158775)
(-0.00571886 0.00476024 -0.00116726)
(-0.0077641 0.00628484 -0.00148832)
(-0.00903922 0.00707884 -0.00129368)
(-0.00921804 0.00705384 -0.000915514)
(-0.0111285 0.00850811 -0.000977274)
(-0.0109338 0.00848693 -0.0013293)
(-0.00734009 0.00538011 -0.000756526)
(-0.00904218 0.00690893 -0.000648535)
(-0.00733432 0.00565794 -0.000861919)
(-0.00715798 0.00580628 -0.00104207)
(-0.00720555 0.00605669 -0.0013538)
(-0.00742118 0.00729703 -0.000939263)
(-0.00851905 0.00697921 -0.00185219)
(-0.00699837 0.00590834 -0.00182107)
(-0.00916602 0.00778187 -0.00273244)
(-0.0113267 0.00943054 -0.00305005)
(-0.0116947 0.00844999 -0.00344469)
(-0.00856451 0.00526146 -0.00194251)
(-0.00694115 0.00518755 -0.00193463)
(-0.00713595 0.0044783 -0.00204243)
(-0.00579484 0.00339987 -0.00182802)
(-0.00626801 0.00334897 -0.00194277)
(-0.0163367 0.00862707 -0.00364631)
(-0.0205521 0.0118026 -0.00438724)
(-0.0295013 0.0171293 -0.00562793)
(-0.0211768 0.0119831 -0.00333932)
(-0.0272715 0.0166556 -0.00450862)
(-0.0339179 0.0241088 -0.00585867)
(-0.0390486 0.0275875 -0.00796403)
(-0.0346615 0.0219706 -0.00703574)
(-0.0430283 0.0273538 -0.0063042)
(-0.035893 0.0225848 -0.00455863)
(-0.0272978 0.0152219 -0.00327689)
(-0.0200446 0.0105072 -0.00243189)
(-0.00966064 0.00442151 -0.00109098)
(-0.0106471 0.00504098 -0.000667976)
(-0.00967247 0.00454389 -0.00014485)
(-0.0203053 0.0107396 -0.000782391)
(-0.0222905 0.0118154 -0.00172685)
(-0.0301981 0.0169606 -0.0023625)
(-0.0392225 0.0229273 -0.003824)
(-0.0365177 0.0211457 -0.00524605)
(-0.0291608 0.0155106 -0.00427033)
(-0.0231414 0.0119665 -0.00433526)
(-0.0174082 0.00829612 -0.00308737)
(-0.00890924 0.0035297 -0.00122498)
(-0.00886374 0.00436944 -0.0017823)
(-0.007382 0.00328769 -0.00107403)
(-0.00632356 0.00254536 -0.000692444)
(-0.00690096 0.00275825 -0.000578488)
(-0.00617983 0.00249264 -0.000387847)
(-0.00654079 0.00298062 -0.00039469)
(-0.00732613 0.00385573 -0.000190386)
(-0.00655024 0.00322929 -0.00063796)
(-0.00581528 0.00358824 -0.000133308)
(-0.00454701 0.0025051 -0.000118063)
(-0.00537616 0.00316824 -0.000264136)
(-0.00519193 0.0032714 -0.000286947)
(-0.00409342 0.00239805 -0.000232627)
(-0.00502066 0.0031255 -0.000539512)
(-0.00560282 0.00348345 -0.000752343)
(-0.00362074 0.00199868 -0.000620213)
(-0.00360951 0.00222678 -0.000826877)
(-0.00462047 0.00261024 -0.000643002)
(-0.00531768 0.00362808 -0.000781038)
(-0.00499117 0.00315314 -0.000642437)
(-0.00472961 0.00322445 -0.000752026)
(-0.00323586 0.00216719 -0.000333847)
(-0.00450553 0.00327172 -0.000643385)
(-0.0037381 0.00273914 -0.000799896)
(-0.00965455 0.00674656 -0.00137297)
(-0.0111903 0.0079696 -0.00181843)
(-0.0042864 0.00300987 -0.000694713)
(-0.00528293 0.00402261 -0.000851017)
(-0.0059673 0.00452126 -0.000901011)
(-0.00738609 0.00545131 -0.000939181)
(-0.00778275 0.00584753 -0.000797489)
(-0.00775939 0.00601815 -0.00110427)
(-0.00686445 0.00540998 -0.00127896)
(-0.00513815 0.0040623 -0.00120055)
(-0.00509649 0.00404842 -0.00112068)
(-0.00664106 0.00517785 -0.00116203)
(-0.00743952 0.00571542 -0.00107318)
(-0.00609446 0.00487241 -0.00103281)
(-0.00548796 0.00452527 -0.00115636)
(-0.00416188 0.00352436 -0.00110154)
(-0.00421138 0.00333489 -0.00148291)
(-0.00441196 0.00392572 -0.00119811)
(-0.00468181 0.0037602 -0.00169667)
(-0.00357908 0.00287613 -0.00149895)
(-0.00319797 0.00290202 -0.00112139)
(-0.00357957 0.00282181 -0.00155465)
(-0.00261381 0.00211265 -0.00110477)
(-0.00347677 0.00272579 -0.00171178)
(-0.00405335 0.00280411 -0.00183158)
(-0.00392359 0.00276418 -0.00171052)
(-0.00401289 0.00288578 -0.00169608)
(-0.00321853 0.0023463 -0.00109353)
(-0.00424217 0.00303694 -0.00168782)
(-0.00582121 0.00405035 -0.00235203)
(-0.00453811 0.00321521 -0.00154898)
(-0.00596631 0.00409596 -0.00175281)
(-0.00581786 0.00438951 -0.00157023)
(-0.00714257 0.00541462 -0.00176258)
(-0.00643157 0.00504212 -0.0012744)
(-0.00654864 0.00578761 -0.0011038)
(-0.00818109 0.00623822 -0.00220588)
(-0.00628556 0.0050735 -0.00174927)
(-0.00866826 0.00668666 -0.00246641)
(-0.0108699 0.00807732 -0.00339854)
(-0.00864296 0.00579825 -0.00233115)
(-0.00620303 0.00429719 -0.00167543)
(-0.00533947 0.00343247 -0.00120615)
(-0.00600008 0.00345175 -0.00156523)
(-0.00489471 0.00285363 -0.00163682)
(-0.00682574 0.00333068 -0.00154079)
(-0.0069566 0.00416773 -0.00224325)
(-0.00736612 0.00377767 -0.00181292)
(-0.00606415 0.00308004 -0.00181159)
(-0.00585318 0.00279822 -0.00111451)
(-0.00427309 0.00199504 -0.00107553)
(-0.00605218 0.00300611 -0.0010149)
(-0.00794584 0.00361137 -0.00100611)
(-0.00836898 0.0040458 -0.000838848)
(-0.00700847 0.00349191 -0.000392283)
(-0.00459125 0.00221445 -0.000361084)
(-0.00451187 0.00249655 -4.47717e-05)
(-0.00665267 0.0036204 -0.000552566)
(-0.00553738 0.00341842 -0.000331103)
(-0.00427829 0.00234649 -0.000395058)
(-0.00467206 0.00286594 -0.000355341)
(-0.00394089 0.00221424 -0.000310787)
(-0.00492879 0.0029501 -0.000674585)
(-0.00605167 0.00355455 -0.00104767)
(-0.00424363 0.00211582 -0.000636528)
(-0.00436137 0.00245896 -0.000828015)
(-0.00412193 0.00219041 -0.000586491)
(-0.00364645 0.00175145 -0.000450181)
(-0.00293922 0.0016541 -0.000321005)
(-0.00408248 0.00245575 -0.000547491)
(-0.00321498 0.00207356 -0.000747586)
(-0.00862877 0.00499288 -0.00116204)
(-0.010424 0.00617143 -0.00137531)
(-0.00400316 0.00255313 -0.000602442)
(-0.00284337 0.00175678 -0.000335586)
(-0.00375363 0.00262928 -0.000693196)
(-0.00356414 0.00238026 -0.000800707)
(-0.00825599 0.00551871 -0.00130726)
(-0.0087617 0.00613045 -0.00148606)
(-0.00325597 0.0021713 -0.000541819)
(-0.00396543 0.00306639 -0.000662534)
(-0.00453723 0.00351107 -0.000831554)
(-0.00549755 0.00438263 -0.000922722)
(-0.00499501 0.0041163 -0.000993235)
(-0.00388764 0.00335166 -0.000927238)
(-0.00344105 0.00296165 -0.00113522)
(-0.00377059 0.00352914 -0.00103709)
(-0.00381492 0.00333214 -0.0014115)
(-0.00305209 0.00274837 -0.00118854)
(-0.00290375 0.00280894 -0.00101148)
(-0.00301241 0.00276205 -0.00126195)
(-0.00253246 0.002213 -0.0011267)
(-0.00219761 0.00168782 -0.00111124)
(-0.00267271 0.0019808 -0.00132316)
(-0.00295238 0.00197483 -0.00127736)
(-0.00280218 0.00207881 -0.00118668)
(-0.00411828 0.00279523 -0.00190071)
(-0.00318337 0.00180324 -0.00116185)
(-0.00355994 0.00217786 -0.00130473)
(-0.00341163 0.00221438 -0.00111107)
(-0.00553348 0.00306632 -0.00176862)
(-0.00729554 0.00492854 -0.00303642)
(-0.00680766 0.00436142 -0.00246674)
(-0.00592174 0.00409207 -0.00169566)
(-0.00784086 0.00538563 -0.00206298)
(-0.0155955 0.0107807 -0.00412579)
(-0.016555 0.0111436 -0.00459878)
(-0.0157715 0.0101504 -0.00424066)
(-0.0157412 0.00944713 -0.00444964)
(-0.0137007 0.00774919 -0.00394177)
(-0.0164916 0.0100723 -0.00508449)
(-0.00625335 0.00374893 -0.00218539)
(-0.00716167 0.00462252 -0.00226344)
(-0.0178921 0.0114895 -0.00542439)
(-0.0172169 0.0115779 -0.00539111)
(-0.0175531 0.0114682 -0.00561379)
(-0.0171623 0.0106401 -0.0061235)
(-0.00987136 0.0060909 -0.00357246)
(-0.00426817 0.0028722 -0.00168433)
(-0.00555294 0.00332175 -0.00195026)
(-0.00510959 0.00292012 -0.00191269)
(-0.00561531 0.00310831 -0.00185654)
(-0.00448609 0.00241127 -0.00140524)
(-0.00459706 0.00232244 -0.00149555)
(-0.00526942 0.0024751 -0.00112077)
(-0.0055833 0.00303421 -0.001434)
(-0.0047772 0.00246739 -0.00113903)
(-0.00419863 0.00196933 -0.000757257)
(-0.00485074 0.00236418 -0.00080279)
(-0.00495573 0.00251351 -0.000609053)
(-0.00422248 0.00215434 -0.000421789)
(-0.00464358 0.0026952 -0.000404372)
(-0.00514076 0.00324828 -0.000300951)
(-0.00474242 0.00282372 -0.000478251)
(-0.00406475 0.00263812 -0.00030909)
(-0.00303885 0.00195015 -0.000147645)
(-0.00363328 0.00235994 -0.000137683)
(-0.0032082 0.00174999 -7.48854e-05)
(-0.00446782 0.00263354 -0.000582611)
(-0.00592777 0.00318838 -0.00105457)
(-0.00443777 0.00189196 -0.000640662)
(-0.00490848 0.00246547 -0.000870448)
(-0.00486396 0.0020019 -0.000516016)
(-0.00487241 0.00208441 -0.000619662)
(-0.00417416 0.00164129 -0.000384245)
(-0.00345815 0.00122863 -0.000152424)
(-0.00249437 0.00101737 -0.000274278)
(-0.00344659 0.00169025 -0.000398365)
(-0.00310597 0.00150454 -0.000517765)
(-0.00769341 0.00366707 -0.000912032)
(-0.00840944 0.00444337 -0.000986538)
(-0.00300683 0.00149158 -0.000321072)
(-0.00211143 0.00110134 -0.000226573)
(-0.00275181 0.00186643 -0.000458621)
(-0.00282897 0.00171078 -0.000407089)
(-0.00645931 0.0040453 -0.000915006)
(-0.00633255 0.00422686 -0.00108488)
(-0.00209024 0.00123937 -0.000369695)
(-0.00272696 0.00203718 -0.00040703)
(-0.00309492 0.0022788 -0.000617555)
(-0.00362466 0.0030225 -0.00074287)
(-0.00415856 0.00347714 -0.000956026)
(-0.00326428 0.00288477 -0.000930259)
(-0.00290076 0.00260821 -0.000712548)
(-0.00267363 0.00234834 -0.000861088)
(-0.00310083 0.00310724 -0.000963553)
(-0.00286602 0.00258457 -0.00117106)
(-0.00176788 0.00159808 -0.000649242)
(-0.00169822 0.00141006 -0.000834395)
(-0.0015263 0.00110718 -0.000827873)
(-0.00134863 0.000930546 -0.000642845)
(-0.00174852 0.0012902 -0.000819708)
(-0.00199428 0.00143807 -0.000895899)
(-0.00205843 0.00129625 -0.000806973)
(-0.00238455 0.00126878 -0.00112529)
(-0.00203673 0.00108117 -0.000724028)
(-0.00311714 0.00164921 -0.00108428)
(-0.00239862 0.00142897 -0.000955266)
(-0.00300713 0.00164995 -0.0010803)
(-0.0033326 0.0017872 -0.00113144)
(-0.00359539 0.00186776 -0.00128624)
(-0.0043653 0.0024242 -0.0015586)
(-0.00375764 0.00232095 -0.00147718)
(-0.00424889 0.0026388 -0.00176643)
(-0.00981803 0.00590295 -0.00373377)
(-0.00917671 0.0051928 -0.00320425)
(-0.00856232 0.00440916 -0.002706)
(-0.00776075 0.00333624 -0.00228858)
(-0.00278403 0.00122991 -0.00100625)
(-0.00295479 0.0012833 -0.000799136)
(-0.00493648 0.00240597 -0.00131179)
(-0.00467525 0.00212141 -0.00116453)
(-0.00468681 0.00210785 -0.00102909)
(-0.00355492 0.00178521 -0.000897995)
(-0.00947415 0.00484805 -0.00251836)
(-0.0113246 0.0061877 -0.00325903)
(-0.0131874 0.00722863 -0.00401253)
(-0.0147894 0.00830423 -0.00453562)
(-0.0226606 0.013052 -0.00633071)
(-0.0177188 0.00905158 -0.00421075)
(-0.0145214 0.00749489 -0.00338574)
(-0.0113086 0.00582755 -0.00273221)
(-0.0168941 0.00907073 -0.00433523)
(-0.0135775 0.00690925 -0.00313749)
(-0.0110546 0.00515863 -0.00239852)
(-0.00413802 0.00196697 -0.000857817)
(-0.00577851 0.00302156 -0.00102343)
(-0.00699025 0.00381882 -0.00103774)
(-0.00689345 0.00392734 -0.000809397)
(-0.00555348 0.00325078 -0.000452336)
(-0.00360557 0.0020108 -0.00033865)
(-0.00364344 0.00216328 -0.000133315)
(-0.00517009 0.00279677 -0.00067947)
(-0.00639709 0.00344365 -0.00110812)
(-0.00673154 0.00327689 -0.00119119)
(-0.00608296 0.00263983 -0.00107492)
(-0.00499241 0.00205457 -0.000815459)
(-0.00334876 0.00119723 -0.000529349)
(-0.00363942 0.00120793 -0.000473689)
(-0.00453993 0.00159145 -0.00056897)
(-0.00961482 0.00336366 -0.00130978)
(-0.0141961 0.00523597 -0.00155772)
(-0.0180198 0.00730098 -0.00285168)
(-0.0193516 0.00951307 -0.00447494)
(-0.0187135 0.0107544 -0.00603005)
(-0.016771 0.0107079 -0.0068582)
(-0.0139948 0.00928936 -0.00663147)
(-0.0106758 0.0070494 -0.00557074)
(-0.007083 0.00452995 -0.00392938)
(-0.00421305 0.00257353 -0.00240129)
(-0.0014632 0.00078966 -0.00071981)
(-0.00159603 0.000971325 -0.000938071)
(-0.001985 0.00114849 -0.00107716)
(-0.00246843 0.00137824 -0.00130065)
(-0.00261899 0.00134993 -0.00127322)
(-0.00189677 0.000915568 -0.000926687)
(-0.00186165 0.00088107 -0.000878652)
(-0.00263684 0.00125163 -0.00118357)
(-0.00223895 0.000869808 -0.00078238)
(-0.00244053 0.00109035 -0.000901538)
(-0.00229119 0.000789529 -0.000669324)
(-0.00424986 0.00169978 -0.00115532)
(-0.00434402 0.00167964 -0.00093344)
(-0.0039989 0.00147312 -0.000968233)
(-0.00413665 0.00169475 -0.000729374)
(-0.00623926 0.00280069 -0.0011768)
(-0.00509685 0.0022153 -0.000945266)
(-0.00571484 0.0023135 -0.000976793)
(-0.00418863 0.00188217 -0.000780912)
(-0.00470339 0.00238926 -0.000870302)
(-0.00448595 0.00244141 -0.000665401)
(-0.00369856 0.00207693 -0.000418267)
(-0.00384789 0.00231137 -0.000437115)
(-0.00403898 0.00254023 -0.000438097)
(-0.00364224 0.00208924 -0.000529586)
(-0.00531548 0.00294609 -0.00111152)
(-0.00640717 0.00322273 -0.00130994)
(-0.00665145 0.00288321 -0.00123969)
(-0.00572014 0.00219303 -0.000846943)
(-0.00402649 0.00125293 -0.000374247)
(-0.00442014 0.00130224 -0.000345529)
(-0.00433358 0.00120429 -7.68176e-05)
(-0.00385585 0.00111053 -5.15454e-05)
(-0.00327349 0.000881316 -0.000116742)
(-0.00439379 0.00147612 -0.000453568)
(-0.00347967 0.00110998 -0.000356149)
(-0.00919585 0.00297938 -0.000822215)
(-0.0114761 0.00420874 -0.0011092)
(-0.00443656 0.0017243 -0.000377729)
(-0.00354197 0.00135783 -6.42165e-05)
(-0.00258713 0.000990296 -0.000114545)
(-0.0038509 0.00145113 -0.000203719)
(-0.00410628 0.00173962 -0.00039439)
(-0.00297439 0.00126308 -0.000176289)
(-0.00208729 0.000826235 -0.000196193)
(-0.00258076 0.00125255 -0.000341153)
(-0.00316663 0.00165083 -0.000339169)
(-0.00274954 0.00168766 -0.000418765)
(-0.00179019 0.00117948 -0.000428062)
(-0.00228017 0.00184055 -0.000449418)
(-0.00247842 0.00196427 -0.000718981)
(-0.00670828 0.00530263 -0.00180147)
(-0.0108198 0.00872521 -0.00307657)
(-0.00772504 0.00636469 -0.00257684)
(-0.0114943 0.00915627 -0.00402454)
(-0.00730604 0.0057717 -0.00273646)
(-0.00873124 0.00669635 -0.00349276)
(-0.0104705 0.00728191 -0.00406989)
(-0.0108765 0.00712984 -0.00420066)
(-0.0107672 0.00649159 -0.00397176)
(-0.010992 0.00565466 -0.00403434)
(-0.00610255 0.00310686 -0.00229925)
(-0.0063081 0.00269432 -0.00229486)
(-0.00594234 0.00205186 -0.0020114)
(-0.00207094 0.000612451 -0.000692128)
(-0.00302631 0.000814078 -0.000823681)
(-0.00350568 0.00107225 -0.00115985)
(-0.003695 0.00110116 -0.000798089)
(-0.00367714 0.0011637 -0.000813699)
(-0.0037243 0.00128964 -0.00070884)
(-0.0034229 0.00113671 -0.000630262)
(-0.00489762 0.00204228 -0.000642243)
(-0.00643704 0.00275795 -0.00080246)
(-0.00713957 0.00336961 -0.000875723)
(-0.00643955 0.00332155 -0.000956527)
(-0.00467757 0.00257966 -0.000782173)
(-0.00469321 0.00252673 -0.00110359)
(-0.00474797 0.00299139 -0.000772503)
(-0.00426439 0.00216863 -0.000832971)
(-0.00592677 0.00275333 -0.00113463)
(-0.00643073 0.00257467 -0.000886245)
(-0.00563662 0.00188492 -0.00056133)
(-0.00398038 0.00105639 -0.00020526)
(-0.00442616 0.00117467 -0.000197085)
(-0.00433741 0.00107398 0.000173491)
(-0.00401722 0.00113842 -6.84745e-05)
(-0.00352601 0.00106985 0.000136297)
(-0.00297009 0.00102206 -0.000250112)
(-0.00263264 0.000705109 2.91571e-05)
(-0.00406795 0.00131533 -6.77827e-05)
(-0.00325016 0.0010514 4.05265e-05)
(-0.00776626 0.0028184 -0.000671936)
(-0.00910369 0.00418597 -0.00145685)
(-0.00348799 0.00156827 -0.000441656)
(-0.00265883 0.00138121 -0.000305764)
(-0.0019815 0.00106406 -0.000419562)
(-0.00263683 0.00144375 -0.000428653)
(-0.00310394 0.0015112 -0.000315302)
(-0.00322601 0.00176359 -0.000538291)
(-0.0020115 0.000934738 -0.000386077)
(-0.00234252 0.00132229 -0.000367432)
(-0.00201227 0.00121722 -0.000442755)
(-0.00212376 0.00126136 -0.00049082)
(-0.00237561 0.00181974 -0.000758776)
(-0.00214804 0.00168616 -0.000530439)
(-0.0025567 0.00221227 -0.00074353)
(-0.00172762 0.00149731 -0.000712988)
(-0.00157785 0.00130153 -0.000525423)
(-0.00152369 0.000998393 -0.000614834)
(-0.00147142 0.0010633 -0.00063029)
(-0.0015875 0.000996032 -0.000726874)
(-0.00139768 0.000801455 -0.000694807)
(-0.00123854 0.000726429 -0.000771945)
(-0.00121465 0.000735199 -0.00058942)
(-0.00126906 0.000756626 -0.000867403)
(-0.00143925 0.000759308 -0.000910131)
(-0.0014033 0.000652623 -0.000792743)
(-0.00152651 0.000725003 -0.000701299)
(-0.00185762 0.000994407 -0.0010276)
(-0.00453787 0.00241526 -0.00243695)
(-0.00444829 0.0021267 -0.0021762)
(-0.00128364 0.000522546 -0.000501222)
(-0.00180918 0.000762748 -0.000804557)
(-0.00231534 0.000841407 -0.000989928)
(-0.00303459 0.00117661 -0.00120997)
(-0.00233151 0.000746901 -0.000768401)
(-0.00183225 0.000491883 -0.000536131)
(-0.00187162 0.000497466 -0.000609906)