/*--------------------------------*- C++ -*----------------------------------*\
| =========                 |                                                 |
| \\      /  F ield         | OpenFOAM: The Open Source CFD Toolbox           |
|  \\    /   O peration     | Version:  5.0                                   |
|   \\  /    A nd           | Web:      www.OpenFOAM.org                      |
|    \\/     M anipulation  |                                                 |
\*---------------------------------------------------------------------------*/
FoamFile
{
    version     2.0;
    format      ascii;
    class       volVectorField;
    location    "60";
    object      wallShearStressRest;
}
// * * * * * * * * * * * * * * * * * * * * * * * * * * * * * * * * * * * * * //

dimensions      [1 -1 -2 0 0 0 0];

internalField   uniform (0 0 0);

boundaryField
{
    Wall_Aorta
    {
        type            calculated;
        value           nonuniform List<vector> 
14259
(
(0.0164869 -0.0772878 -0.0150968)
(0.0149645 -0.0728327 -0.0119829)
(-0.281374 0.216257 -0.0274664)
(-0.31018 0.23521 -0.0274123)
(0.186765 0.0925402 -0.244814)
(-0.0897258 0.0420218 -0.169741)
(-0.113743 0.0614054 -0.171752)
(-0.0669427 0.0356005 -0.0304261)
(-0.0555678 0.0288832 -0.0319464)
(0.926925 0.725661 -0.134531)
(1.07807 1.08421 -0.0190744)
(1.28068 1.06169 0.0283865)
(0.276015 0.207642 -0.381926)
(0.950794 0.690223 -0.199019)
(1.89684 1.19586 0.141344)
(1.68793 1.29677 0.131014)
(1.88234 3.01689 0.283516)
(2.49111 3.52565 -0.100602)
(2.66818 3.41175 0.974939)
(3.17046 3.70588 0.837407)
(3.09553 3.73267 0.489785)
(1.94122 3.70365 0.112771)
(3.18476 3.82145 0.172684)
(2.27312 3.61466 -0.769434)
(2.23462 3.82649 -0.620498)
(1.99842 3.47901 -0.665035)
(0.0221252 0.0652463 -0.19006)
(0.0291319 0.0754197 -0.191883)
(0.0366018 0.0597597 -0.18738)
(0.0364063 0.0659125 -0.189304)
(-0.0226296 0.0693068 -0.136995)
(-0.018409 0.0615707 -0.146234)
(0.0231065 -0.0446659 -0.176223)
(0.0340306 -0.0529216 -0.181198)
(0.0802198 -0.113075 -0.19006)
(0.080369 -0.104113 -0.209983)
(0.0766724 -0.0994327 -0.1985)
(0.0770627 -0.0990705 -0.187182)
(-2.29034 0.731383 -3.03881)
(-2.45308 0.5516 -3.10134)
(-2.03187 0.592392 -2.71725)
(-1.09312 0.432264 -1.56905)
(-1.09476 0.522081 -1.50113)
(-0.768514 0.791521 -1.31408)
(-0.738963 0.844805 -1.30249)
(-0.534758 1.65566 -2.88522)
(-0.875254 2.38452 -3.52041)
(-1.33173 2.9279 -5.13208)
(-1.39918 3.56525 -6.13442)
(0.207968 1.37543 -3.81675)
(0.440486 1.41424 -4.32301)
(2.05071 -0.306887 -2.87301)
(1.9804 -0.168433 -2.36036)
(1.27935 -0.207767 -1.47534)
(0.863186 0.00731311 -0.978847)
(0.916792 -0.0260582 -0.959797)
(1.23859 -0.106003 -1.51375)
(1.08503 -0.164637 -1.21875)
(1.05429 -0.148555 -1.0833)
(0.975509 -0.0720017 -1.09999)
(0.987201 -0.0828175 -1.05476)
(1.13935 -0.131232 -1.09856)
(0.981094 -0.0746646 -0.80927)
(1.07685 -0.0618366 -0.868411)
(1.17518 -0.0323245 -1.0438)
(1.09801 0.08945 -1.05138)
(1.00344 0.0769771 -0.763086)
(1.00757 0.0162176 -0.871884)
(1.01649 0.00457677 -0.710497)
(0.948647 -0.035952 -0.819228)
(0.849758 0.0452516 -0.917834)
(0.916232 1.02249 -3.35355)
(0.58706 1.04354 -3.52368)
(3.00215 0.320874 -4.92157)
(3.50097 0.239117 -5.04568)
(0.339178 0.519565 -2.12162)
(0.55725 0.535932 -2.1307)
(3.40669 0.21714 -6.60688)
(16.5267 -5.89263 -25.6354)
(2.48654 0.224671 -2.82399)
(2.25732 0.336626 -2.14762)
(2.54647 -0.0233896 -1.22406)
(3.39078 -0.0419748 -1.15249)
(3.15364 -0.0886499 -1.09279)
(2.75172 -0.170948 -1.12531)
(1.28209 2.26178 -3.22775)
(1.59267 2.91493 -3.84407)
(0.660484 -0.110913 -0.418407)
(0.719452 -0.0933878 -0.393728)
(0.791326 -0.11083 -0.468557)
(0.844272 -0.117041 -0.47894)
(0.776526 -0.16148 -0.205097)
(0.846466 -0.194533 -0.307013)
(0.582836 -0.0931273 -0.499999)
(0.63011 -0.0879139 -0.537557)
(0.0817204 -0.175645 -0.194092)
(0.0730857 -0.172939 -0.220821)
(0.00437844 -0.0691187 -0.03247)
(0.0077307 -0.087767 -0.0288057)
(0.147376 -0.125499 0.0478798)
(0.178483 -0.143529 0.0385477)
(0.175271 -0.119602 0.0425513)
(0.131469 -0.136926 0.0365903)
(0.151769 -0.127903 0.0386712)
(0.181302 -0.145947 0.035518)
(0.175177 -0.12075 0.0338243)
(0.134169 -0.144858 0.0263681)
(0.154105 -0.136731 0.0311423)
(0.132148 -0.125354 0.0224343)
(0.180575 -0.151492 0.0299897)
(0.170178 -0.127201 0.0306272)
(0.148393 -0.121483 0.0193589)
(0.131056 -0.141654 0.0368765)
(0.148331 -0.127132 0.0132419)
(0.115974 -0.12007 0.014986)
(0.13183 -0.132687 0.0186608)
(0.111215 -0.110343 0.0201226)
(0.0863901 -0.171233 0.0415159)
(0.0888024 -0.180137 0.0566797)
(0.0723889 -0.173536 0.0522219)
(0.0632263 -0.16043 0.0330813)
(0.0808345 -0.166047 0.0310631)
(0.0642712 -0.144542 0.0208772)
(0.0489579 -0.152081 0.0166436)
(0.0720481 -0.151941 0.0133616)
(0.0627667 -0.149809 0.0183867)
(0.0794311 -0.17541 0.0264218)
(0.0907453 -0.17341 0.0364027)
(0.0734427 -0.160112 0.0477906)
(0.0955414 -0.170012 0.0408145)
(0.10448 -0.167236 0.0477823)
(0.0833753 -0.159307 0.0519346)
(0.0892794 -0.169334 0.0394045)
(0.100593 -0.179615 0.0365693)
(0.0808811 -0.157694 0.0377526)
(0.106653 -0.170166 0.0363702)
(0.0720499 -0.157411 0.0143678)
(0.0667669 -0.163714 0.0206726)
(0.0602198 -0.150386 0.0211582)
(0.069806 -0.160385 0.0292066)
(0.0580895 -0.152808 0.0168246)
(0.0608536 -0.169003 0.025185)
(0.068113 -0.174869 0.0136778)
(0.0633364 -0.18583 0.00818737)
(0.0595636 -0.177079 0.0208985)
(0.056205 -0.185688 0.0147842)
(0.0657825 -0.175207 0.0426561)
(0.0652985 -0.191453 0.0443793)
(0.0658413 -0.188669 0.0336795)
(0.0754562 -0.165495 0.0340576)
(0.0750281 -0.172454 0.0440389)
(0.0643913 -0.182144 0.0313505)
(0.0695752 -0.18373 0.0532639)
(0.0604312 -0.195506 0.0371186)
(0.0641934 -0.190875 0.0199719)
(0.05556 -0.176071 0.0192653)
(0.058529 -0.199167 0.017955)
(0.0565151 -0.185858 0.0025014)
(0.0593594 -0.187478 0.0284103)
(0.0514264 -0.197378 0.0189433)
(0.0724526 -0.163287 0.0189073)
(0.0630786 -0.152285 0.0244793)
(0.117078 -0.155691 0.0623393)
(0.139397 -0.175204 0.0906689)
(0.0988253 -0.148282 0.0814069)
(0.0930859 -0.175836 0.0641865)
(0.0855701 -0.194772 0.0766262)
(0.0833182 -0.18062 0.0675981)
(0.0930816 -0.150907 0.0646957)
(0.11335 -0.188784 0.0977048)
(0.093361 -0.150051 0.0718036)
(0.0831893 -0.175587 0.0722449)
(0.108479 -0.175147 0.0583024)
(0.120501 -0.187905 0.0789272)
(0.0898739 -0.168911 0.0761667)
(0.095025 -0.129735 0.0555957)
(0.110167 -0.144721 0.0831392)
(0.0821286 -0.130628 0.0614151)
(0.120187 -0.127573 0.0673017)
(0.0817945 -0.116694 0.0476833)
(0.111405 -0.129203 0.053122)
(0.135131 -0.135062 0.0778984)
(0.101739 -0.124507 0.0699574)
(0.0816941 -0.146698 0.0684453)
(0.122101 -0.168721 0.0591518)
(0.127058 -0.169593 0.0546615)
(0.106107 -0.158567 0.0703982)
(0.126676 -0.146114 0.0605143)
(0.14375 -0.151758 0.0606401)
(0.11303 -0.134283 0.0711585)
(0.117238 -0.169641 0.0505105)
(0.122153 -0.157778 0.0482879)
(0.126654 -0.150735 0.0515902)
(0.142627 -0.149541 0.0535097)
(0.0890347 -0.201196 0.0697116)
(0.0749223 -0.186652 0.048023)
(0.0708814 -0.201718 0.0568999)
(0.0776687 -0.188471 0.0624648)
(0.0761342 -0.180863 0.0580229)
(0.0689083 -0.197192 0.0435821)
(0.0564926 -0.182736 0.0277511)
(0.0645664 -0.195626 0.0278586)
(0.0768837 -0.182206 0.0468859)
(0.0669013 -0.175938 0.0321141)
(0.0721307 -0.179508 0.0323973)
(0.0852883 -0.176321 0.0481661)
(0.07138 -0.165752 0.0451756)
(0.0756836 -0.167946 0.0366259)
(0.0768414 -0.165809 0.0325022)
(0.0840655 -0.15596 0.0412462)
(0.0837761 -0.167871 0.0403558)
(0.0765811 -0.161539 0.0329441)
(0.0452573 -0.147837 0.00833895)
(0.0749506 -0.154602 0.0148398)
(0.075903 -0.170615 0.0185222)
(0.0621932 -0.152568 0.00466381)
(0.0713049 -0.170673 0.00839585)
(0.0895032 -0.175262 0.0332963)
(0.098158 -0.176611 0.031168)
(0.107461 -0.179197 0.0338546)
(0.0837019 -0.175809 0.0252323)
(0.0939818 -0.175767 0.0167123)
(0.107338 -0.183337 0.0275589)
(0.0566832 -0.152361 0.00165896)
(0.0643191 -0.172843 0.00200525)
(0.0330303 -0.150805 -0.00279675)
(0.0558385 -0.15294 -0.00481518)
(0.0425181 -0.142619 -0.00609327)
(0.0620128 -0.160637 -0.00474677)
(0.0709645 -0.175893 0.0123546)
(0.0843068 -0.174657 0.0108842)
(0.073795 -0.161119 0.00109467)
(0.101942 -0.184377 0.0169279)
(0.0652965 -0.171832 0.00529774)
(0.0789214 -0.172697 0.00750286)
(0.0864591 -0.179888 0.0038596)
(0.0718251 -0.161466 3.15149e-07)
(0.1178 -0.171617 0.0388309)
(0.124912 -0.159361 0.0382805)
(0.130537 -0.154572 0.0414823)
(0.147116 -0.151773 0.0409902)
(0.116452 -0.178697 0.029211)
(0.12491 -0.167402 0.0272454)
(0.130739 -0.161096 0.0262166)
(0.144192 -0.159513 0.0316752)
(0.126383 -0.1428 0.0222762)
(0.119224 -0.167821 0.0168759)
(0.121354 -0.17651 0.0208656)
(0.107279 -0.163623 0.0113646)
(0.130282 -0.167144 0.0282178)
(0.109199 -0.169593 0.0144124)
(0.116442 -0.172443 0.00858691)
(0.0968902 -0.1499 0.00748992)
(0.102736 -0.178275 0.015193)
(0.120598 -0.149482 0.0352739)
(0.141463 -0.140444 0.0120935)
(0.116702 -0.148476 0.015349)
(0.129882 -0.150546 0.0167274)
(0.105557 -0.131899 0.0125072)
(0.0280469 -0.117843 -0.0504532)
(0.0259473 -0.113962 -0.0457212)
(0.0123131 -0.0969102 -0.0371011)
(0.0257978 -0.100256 -0.0402905)
(0.0133465 -0.0799547 -0.0253262)
(0.0204316 -0.100151 -0.026996)
(0.015554 -0.0893278 -0.0241795)
(0.0263595 -0.143071 -0.022273)
(0.0446712 -0.141311 -0.0366729)
(0.0203273 -0.128004 -0.0152285)
(0.0305993 -0.123883 -0.0169156)
(0.0236117 -0.11263 -0.0100023)
(0.0251738 -0.120871 -0.032306)
(0.0197211 -0.111355 -0.0234038)
(0.0136542 -0.0728534 -0.024454)
(0.0163874 -0.0716603 -0.0188626)
(0.016138 -0.0784383 -0.0149453)
(0.0100326 -0.0772836 -0.0155256)
(0.00760479 -0.0928489 -0.0167839)
(0.0197149 -0.0909119 -0.0154985)
(0.0100494 -0.0803906 -0.00629104)
(0.019042 -0.101437 -0.0107809)
(0.0177768 -0.0917506 -0.00789424)
(0.00710119 -0.0734966 -0.00538277)
(0.0138558 -0.0805342 -0.013189)
(0.00931385 -0.0704298 0.000515969)
(0.0145837 -0.0824432 -0.0032076)
(0.0142828 -0.0800481 -0.00358197)
(0.0456264 -0.146728 -0.0197221)
(0.0467702 -0.153796 -0.00436029)
(0.0357186 -0.135782 -0.00859053)
(0.0329047 -0.121385 -0.00582366)
(0.0404542 -0.139069 -0.0062444)
(0.0325054 -0.127646 -0.00265335)
(0.0328115 -0.147959 0.00136561)
(0.0545342 -0.159605 -0.00570269)
(0.0399786 -0.142196 0.00150696)
(0.0492727 -0.146486 -0.00797024)
(0.0444502 -0.149048 0.00542097)
(0.0278623 -0.143327 0.00276576)
(0.0485021 -0.156034 -0.00231524)
(0.0360247 -0.13529 0.00964935)
(0.0241563 -0.104917 -0.00181729)
(0.0217423 -0.0971839 -0.00233229)
(0.030271 -0.117792 0.00536064)
(0.0253434 -0.108544 0.00130286)
(0.0168136 -0.0877165 0.00269978)
(0.0164435 -0.0839656 0.000462135)
(0.0200952 -0.0933393 0.00768464)
(0.0203427 -0.0912599 0.0027477)
(0.0297864 -0.135013 0.00486231)
(0.0370529 -0.137083 0.00448901)
(0.0276094 -0.12091 0.0149949)
(0.0398897 -0.139544 0.00759922)
(0.0364587 -0.134142 0.00775486)
(0.0326779 -0.120498 0.00884955)
(0.0298581 -0.126811 0.0134575)
(0.0311859 -0.125732 0.0139472)
(0.0279706 -0.0965404 0.0067357)
(0.0287437 -0.110956 0.00718501)
(0.022195 -0.0941041 -0.00830729)
(0.0327424 -0.15459 -5.06824e-05)
(0.0505529 -0.162751 -0.00396051)
(0.0435032 -0.146327 0.00115318)
(0.0606477 -0.166088 -0.00574345)
(0.0508867 -0.160055 -0.00780628)
(0.0673414 -0.171176 0.00467704)
(0.0471358 -0.161683 -0.000243535)
(0.0536726 -0.174425 0.00119469)
(0.0385796 -0.150463 0.00551258)
(0.0423118 -0.15444 -0.000954631)
(0.0392486 -0.150587 -0.00719923)
(0.0393699 -0.141426 0.000427854)
(0.0379548 -0.146927 -0.000802695)
(0.037727 -0.14259 0.000372767)
(0.044508 -0.153889 0.00348346)
(0.0382365 -0.151964 -0.00390984)
(0.0401234 -0.154572 0.00153771)
(0.0365213 -0.138976 0.00810848)
(0.0381865 -0.14178 0.0105231)
(0.0339237 -0.142523 0.00755093)
(0.0339501 -0.147803 0.00928344)
(0.0375873 -0.139725 0.0140139)
(0.0370127 -0.135184 0.016677)
(0.0341004 -0.150664 0.0154872)
(0.0350213 -0.154183 0.0188949)
(0.0312565 -0.151413 0.00768124)
(0.0304231 -0.15398 0.00764834)
(0.03164 -0.150424 0.00806679)
(0.0315404 -0.1523 0.00722959)
(0.0300605 -0.154739 0.0135065)
(0.0313348 -0.160054 0.0185342)
(0.0314266 -0.15274 0.0157301)
(0.0301447 -0.153691 0.0207895)
(0.0744077 -0.163468 0.00300773)
(0.0834254 -0.180071 0.000315223)
(0.0708572 -0.152056 0.00650424)
(0.0947254 -0.168653 0.0149706)
(0.0776576 -0.151535 -0.00351961)
(0.0618697 -0.156047 0.00556578)
(0.0509647 -0.152611 0.00044877)
(0.0656016 -0.150667 0.0130976)
(0.0538715 -0.144042 0.00570142)
(0.0966616 -0.147836 0.0279193)
(0.105396 -0.161364 0.00402228)
(0.0866683 -0.1329 0.010517)
(0.102233 -0.123186 0.0309897)
(0.109529 -0.13832 0.0103389)
(0.0909566 -0.124132 0.02009)
(0.0899173 -0.128886 0.0166026)
(0.076922 -0.14173 0.0254834)
(0.0778171 -0.160687 0.00823096)
(0.0665914 -0.137652 0.0194416)
(0.0596705 -0.137155 0.017846)
(0.0752768 -0.127336 0.0222705)
(0.0716807 -0.130712 0.014328)
(0.0651848 -0.125875 0.0220964)
(0.0445735 -0.145535 0.00645763)
(0.0484587 -0.137008 0.014124)
(0.0534638 -0.1307 0.0202653)
(0.0511281 -0.119865 0.0269227)
(0.0522197 -0.124495 0.0290288)
(0.0423482 -0.120674 0.0343319)
(0.0522529 -0.121288 0.0344399)
(0.0487367 -0.108362 0.0292912)
(0.0693403 -0.116649 0.0525668)
(0.0533458 -0.105799 0.0286183)
(0.0338435 -0.141432 0.0120653)
(0.0313633 -0.141742 0.00850349)
(0.0366107 -0.129966 0.0179391)
(0.0344877 -0.136059 0.012308)
(0.0307183 -0.141317 0.0169299)
(0.0275588 -0.145721 0.0230995)
(0.0338578 -0.134846 0.0246404)
(0.0293187 -0.121084 0.0215393)
(0.0409551 -0.123859 0.0340907)
(0.0288498 -0.12479 0.0175612)
(0.0441277 -0.114294 0.0183524)
(0.0452679 -0.117569 0.0232247)
(0.0345479 -0.114627 0.00054384)
(0.0385222 -0.111886 0.0241459)
(0.0376 -0.10932 0.0341939)
(0.0381464 -0.115816 0.0142182)
(0.0130414 -0.0961351 -0.0287526)
(0.0118314 -0.0908291 -0.0258962)
(0.00617899 -0.0856594 -0.0353869)
(0.00583875 -0.0784916 -0.0421183)
(0.00320893 -0.0870983 -0.0430565)
(0.0133557 -0.0819378 -0.0430742)
(0.00189813 -0.0757968 -0.0311578)
(0.0118878 -0.0999322 -0.052932)
(0.0069069 -0.0884961 -0.0491898)
(0.019293 -0.086469 -0.0495354)
(0.00630936 -0.0843524 -0.0471412)
(0.00470901 -0.0755941 -0.0428173)
(0.0153668 -0.0743674 -0.0452954)
(0.000576475 -0.0744554 -0.0378272)
(0.00387117 -0.0758469 -0.0359713)
(0.0160268 -0.0872037 -0.0462729)
(0.00642201 -0.0837191 -0.0347091)
(0.0120747 -0.0862156 -0.0479011)
(0.00984025 -0.0844905 -0.0479687)
(0.0266343 -0.0904664 -0.0473567)
(0.00628502 -0.0788126 -0.0401735)
(0.0157614 -0.1075 -0.0564797)
(0.0181763 -0.102363 -0.0549491)
(0.0206299 -0.112821 -0.0579655)
(0.0223892 -0.113307 -0.0569542)
(0.0228294 -0.105774 -0.054253)
(0.0281909 -0.114207 -0.0555218)
(0.0116196 -0.0946494 -0.0545136)
(0.0290008 -0.0924463 -0.0511765)
(0.0141262 -0.0879037 -0.0529474)
(0.0142748 -0.107347 -0.0600572)
(0.0350675 -0.103328 -0.0596205)
(0.0324948 -0.120154 -0.0301236)
(0.0255742 -0.119131 -0.0256842)
(0.019585 -0.108366 -0.0320786)
(0.0517874 -0.139665 -0.0198464)
(0.0490781 -0.162312 -0.0142656)
(0.0369282 -0.136634 -0.00639643)
(0.0399224 -0.148715 -0.0269711)
(0.0326456 -0.129504 -0.0166589)
(0.0157188 -0.100049 -0.0365862)
(0.00645117 -0.0926391 -0.0334729)
(0.024453 -0.110978 -0.0419853)
(0.0135601 -0.0930929 -0.0277514)
(0.0189462 -0.115679 -0.02916)
(0.0351666 -0.141125 -0.0318716)
(0.0268175 -0.120768 -0.0216521)
(0.0276102 -0.123043 -0.0390069)
(0.0564447 -0.171127 -0.0154351)
(0.0525261 -0.161494 -0.0202376)
(0.060429 -0.175515 -0.00385145)
(0.055799 -0.172169 -0.0122969)
(0.0492011 -0.153721 -0.0247138)
(0.0447849 -0.134775 -0.0304633)
(0.0486112 -0.139291 -0.0356309)
(0.0548923 -0.172347 -0.0194815)
(0.0483611 -0.157466 -0.0274567)
(0.0650903 -0.187091 -0.0236756)
(0.0489793 -0.157354 -0.0148877)
(0.0646864 -0.17153 -0.0244402)
(0.02221 -0.0982724 -0.0455594)
(0.0170996 -0.09873 -0.0461988)
(0.0188837 -0.103259 -0.0420883)
(0.0403082 -0.112161 -0.0389006)
(0.0267547 -0.105909 -0.0347126)
(0.0160461 -0.0997207 -0.0508649)
(0.0396026 -0.106816 -0.0463731)
(0.0198998 -0.0961336 -0.0474514)
(0.0350118 -0.114024 -0.0397777)
(0.0359328 -0.109125 -0.0530442)
(0.0271018 -0.114343 -0.0478852)
(0.0565519 -0.11826 -0.0421235)
(0.0363093 -0.109623 -0.0448467)
(0.0308032 -0.124414 -0.040633)
(0.0647861 -0.151568 -0.0348208)
(0.0360584 -0.117384 -0.0280165)
(0.0542075 -0.146064 -0.0426485)
(0.0466941 -0.164233 -0.0362778)
(0.0826376 -0.186503 -0.0281633)
(0.0612375 -0.159389 -0.0288896)
(0.0244295 -0.116409 -0.055058)
(0.0265041 -0.120166 -0.0564277)
(0.0278473 -0.120273 -0.0518581)
(0.0296349 -0.121836 -0.0550174)
(0.0344883 -0.121377 -0.0539647)
(0.0407533 -0.125747 -0.0500633)
(0.0174693 -0.112093 -0.0564052)
(0.0406795 -0.107094 -0.0537783)
(0.0201935 -0.111771 -0.052919)
(0.044005 -0.110027 -0.0485052)
(0.0315723 -0.123278 -0.0505195)
(0.0346967 -0.119824 -0.0513216)
(0.029679 -0.122635 -0.0418152)
(0.0385878 -0.114686 -0.0352321)
(0.0165775 -0.109834 -0.0400901)
(0.036895 -0.113893 -0.0372736)
(0.0351932 -0.1074 -0.0409048)
(0.0430661 -0.125966 -0.0438103)
(0.0409563 -0.125146 -0.0455355)
(0.0463735 -0.111941 -0.0363877)
(0.0146918 -0.109244 -0.0426228)
(0.0424756 -0.11218 -0.0459856)
(0.0354449 -0.106439 -0.0457408)
(0.0415755 -0.112768 -0.0508612)
(0.0324491 -0.119799 -0.0473538)
(0.062471 -0.126587 -0.046534)
(0.0458298 -0.113742 -0.0482535)
(0.0358126 -0.121219 -0.0464189)
(0.0666089 -0.127308 -0.0398959)
(0.0573089 -0.153286 -0.0385356)
(0.053574 -0.167618 -0.0338117)
(0.088018 -0.19123 -0.0309234)
(0.0618761 -0.154509 -0.0347258)
(0.056408 -0.168546 -0.0310299)
(0.0928134 -0.192815 -0.0247648)
(0.0483312 -0.115278 -0.0438203)
(0.0308267 -0.120913 -0.0377751)
(0.063484 -0.122077 -0.0364997)
(0.0497045 -0.11289 -0.0391878)
(0.0283135 -0.112824 -0.0337581)
(0.0537519 -0.107571 -0.0293057)
(0.043091 -0.102646 -0.0328682)
(0.0518401 -0.123978 -0.0306281)
(0.0636591 -0.150989 -0.0291075)
(0.0593613 -0.167165 -0.0273065)
(0.0935909 -0.188099 -0.0181007)
(0.0673951 -0.131904 -0.0219047)
(0.055985 -0.16578 -0.0182103)
(0.0919313 -0.182971 -0.0162004)
(0.0727487 -0.160249 -0.0227802)
(0.0587626 -0.188934 0.00161775)
(0.0570563 -0.189757 -0.00550918)
(0.0516276 -0.193494 0.00832783)
(0.0509211 -0.199786 -0.00175564)
(0.0641926 -0.191296 -0.013258)
(0.0542479 -0.189755 -0.0176683)
(0.0436196 -0.19494 -0.0110902)
(0.0550114 -0.2144 -0.00780348)
(0.0429127 -0.187755 0.00303466)
(0.0443537 -0.191436 0.0119226)
(0.0517456 -0.186017 0.00197055)
(0.0439408 -0.190921 -0.00406641)
(0.0561239 -0.18565 0.0137003)
(0.0470241 -0.182473 0.00136558)
(0.0465235 -0.183148 0.00255134)
(0.0569543 -0.197624 -0.021597)
(0.0744126 -0.232098 -0.0189672)
(0.0526529 -0.181086 -0.0105663)
(0.0632028 -0.213808 -0.00957938)
(0.0798175 -0.220701 -0.0243068)
(0.0549882 -0.238213 -0.0132295)
(0.0713628 -0.255606 -0.0198236)
(0.0592746 -0.213472 -0.0133638)
(0.057366 -0.21156 -0.020662)
(0.0485666 -0.189526 -0.0112306)
(0.0526532 -0.20458 -0.0113413)
(0.0560872 -0.188223 -0.0102418)
(0.0613203 -0.227941 -0.0125631)
(0.061747 -0.20332 -0.0181927)
(0.0573545 -0.174697 0.0133188)
(0.0503214 -0.179129 0.00356865)
(0.0484467 -0.17614 0.00384332)
(0.0672509 -0.169427 0.0173834)
(0.0449748 -0.166512 0.00318914)
(0.0690321 -0.171275 0.00660973)
(0.0495873 -0.160007 0.0167662)
(0.0693897 -0.165554 0.0215432)
(0.0755381 -0.161476 0.0125542)
(0.0622039 -0.152815 0.0160238)
(0.0895515 -0.171186 0.0271873)
(0.0786328 -0.151481 0.0355671)
(0.0632718 -0.182147 0.00842027)
(0.0405299 -0.187215 -0.0010579)
(0.0654884 -0.185398 -0.00394836)
(0.0516557 -0.170703 0.00102203)
(0.0668492 -0.200926 -0.00181793)
(0.0514414 -0.184606 0.000218366)
(0.0793663 -0.172473 0.00539732)
(0.0639479 -0.164908 -0.00358575)
(0.0530346 -0.160417 0.0056158)
(0.0789688 -0.156501 0.0107785)
(0.0605167 -0.142541 0.0118528)
(0.0854126 -0.169728 0.024506)
(0.076963 -0.182324 0.00876776)
(0.0593708 -0.14874 0.0118275)
(0.0953786 -0.148995 0.0210056)
(0.078473 -0.147201 0.0117168)
(0.0822071 -0.230161 -0.0215312)
(0.0900123 -0.255253 -0.0152599)
(0.086752 -0.234291 -0.0178036)
(0.0889419 -0.262145 -0.0139392)
(0.0536139 -0.257336 -0.0158916)
(0.0690204 -0.234182 -0.010742)
(0.0632427 -0.225253 -0.0207855)
(0.0609506 -0.213067 -0.0108986)
(0.0587394 -0.261629 -0.0125571)
(0.0759832 -0.229849 -0.00580872)
(0.0635439 -0.213689 0.00036938)
(0.0872935 -0.233953 -0.0138016)
(0.0971182 -0.263801 -0.0108371)
(0.0911833 -0.22588 -0.00910709)
(0.0653612 -0.24793 -0.00499712)
(0.0773098 -0.251786 0.0127633)
(0.0659134 -0.221163 0.00389482)
(0.0554736 -0.255995 -0.00177568)
(0.0707309 -0.221621 0.00133011)
(0.063921 -0.218016 0.00799416)
(0.0630267 -0.219142 0.0100142)
(0.0654381 -0.222995 0.0114808)
(0.070275 -0.204805 0.0219763)
(0.0666521 -0.198856 -0.00181291)
(0.0581688 -0.187377 0.00291562)
(0.0870091 -0.173468 0.0033034)
(0.0720097 -0.198966 0.000757108)
(0.0594575 -0.184245 0.0068471)
(0.0881645 -0.170501 0.0143678)
(0.0785244 -0.176931 0.0121359)
(0.0671838 -0.143011 0.0203793)
(0.100578 -0.138622 0.0209562)
(0.0795794 -0.169577 0.0185738)
(0.0652718 -0.134136 0.0246151)
(0.0986121 -0.132243 0.0302996)
(0.0675783 -0.174921 0.0242694)
(0.0746522 -0.19837 0.00762128)
(0.0552519 -0.175651 0.0167072)
(0.0841448 -0.163626 0.016602)
(0.0649619 -0.162912 0.0245086)
(0.05042 -0.184745 0.0170404)
(0.071889 -0.173578 0.0264267)
(0.0548181 -0.167389 0.0248198)
(0.075819 -0.165157 0.0257987)
(0.0579543 -0.127319 0.0315896)
(0.0940723 -0.125456 0.0312355)
(0.072956 -0.123739 0.0362237)
(0.0535547 -0.135209 0.0356529)
(0.0769886 -0.126053 0.0450599)
(0.0794341 -0.142388 0.038496)
(0.0148585 -0.0771289 -0.0160216)
(0.00723827 -0.0649593 -0.00742319)
(0.0101803 -0.0688191 -0.0112805)
(0.0112811 -0.065432 0.00115023)
(0.015247 -0.070502 0.00136136)
(0.0186918 -0.0858299 -0.0146998)
(0.0212348 -0.0896959 -0.0162562)
(0.0284408 -0.0912676 -0.0134666)
(0.0234697 -0.0784478 -0.00839249)
(0.0201155 -0.0807367 -0.00975667)
(0.0173287 -0.0749853 0.0051638)
(0.0105618 -0.0762993 -0.00511369)
(0.0156815 -0.0792463 -0.0032672)
(0.0146206 -0.0767487 -0.00109649)
(0.0174004 -0.0779028 -0.000646105)
(0.0344322 -0.0977618 -0.0161071)
(0.0285649 -0.0927417 -0.00579993)
(0.0345045 -0.0951959 -0.0118689)
(0.0330266 -0.0907551 -0.00461633)
(0.0225829 -0.0845183 -0.00906527)
(0.0191749 -0.0837211 -0.00235898)
(0.0265257 -0.0845213 -0.00660342)
(0.0212968 -0.0815698 0.000104466)
(0.0358511 -0.117171 -0.0346385)
(0.0335434 -0.116484 -0.0369836)
(0.0400462 -0.107392 -0.0244137)
(0.0208718 -0.110664 -0.0306826)
(0.0320247 -0.115568 -0.0266689)
(0.0293465 -0.103776 -0.0305684)
(0.0364359 -0.110893 -0.0272261)
(0.0386204 -0.115036 -0.0263065)
(0.0445765 -0.105819 -0.0248089)
(0.026678 -0.107987 -0.030913)
(0.045825 -0.110462 -0.024378)
(0.0415424 -0.104352 -0.0300866)
(0.0366235 -0.104836 -0.0233791)
(0.0382765 -0.0986975 -0.0123329)
(0.0394614 -0.107518 -0.0226083)
(0.0428667 -0.0993446 -0.0123276)
(0.0278583 -0.0997543 -0.0250327)
(0.0254723 -0.0935435 -0.0154397)
(0.0218501 -0.0986044 -0.0181434)
(0.0302157 -0.102327 -0.0178185)
(0.0239825 -0.0890861 -0.0199544)
(0.080989 -0.180852 -0.0147547)
(0.0654337 -0.143499 -0.0124978)
(0.0559405 -0.125933 0.00118155)
(0.0620947 -0.158491 -0.000694979)
(0.0736215 -0.176719 0.00642167)
(0.0568164 -0.141188 -0.00303682)
(0.0177442 -0.0803133 0.00217777)
(0.0203002 -0.0817852 0.00222896)
(0.0219176 -0.0890047 0.0046498)
(0.0277065 -0.0871263 0.00411218)
(0.0229502 -0.0892826 0.00716953)
(0.0406093 -0.0984485 -0.00961136)
(0.0372954 -0.0934896 -0.00170548)
(0.0321833 -0.0975712 0.00315079)
(0.0398261 -0.104327 -0.0141139)
(0.0482658 -0.113981 -0.000439192)
(0.0385527 -0.101499 -0.00806326)
(0.0251216 -0.0856809 -0.00647745)
(0.0279694 -0.0933257 0.00194124)
(0.0233607 -0.0808753 -0.0050701)
(0.0337246 -0.118899 0.0148425)
(0.0373485 -0.117966 0.0143947)
(0.0280928 -0.10546 0.013896)
(0.0252224 -0.0944379 -0.00374949)
(0.0264631 -0.0876177 0.0057416)
(0.0279844 -0.100901 0.012555)
(0.0267706 -0.0890518 -0.00255205)
(0.0497212 -0.114904 0.00038835)
(0.0385378 -0.101227 0.00952152)
(0.0429063 -0.12549 0.00255734)
(0.0498692 -0.149783 0.0215255)
(0.0415496 -0.115352 0.00366163)
(0.0495845 -0.1159 -0.0295539)
(0.0563527 -0.109617 -0.0184849)
(0.0454758 -0.108313 -0.0126678)
(0.0476809 -0.101467 -0.0113601)
(0.0409433 -0.109752 -0.0181972)
(0.0632233 -0.119255 -0.0116934)
(0.048567 -0.104135 -0.017313)
(0.0469443 -0.132686 -0.0202194)
(0.0785689 -0.148144 -0.0121026)
(0.0607881 -0.128943 -0.0244451)
(0.0668492 -0.200592 -0.00300359)
(0.0747639 -0.228584 0.00881999)
(0.0605921 -0.180362 -0.00479472)
(0.068756 -0.216881 0.0126623)
(0.062874 -0.180851 0.0102844)
(0.0533831 -0.167023 0.0246299)
(0.0604343 -0.193644 0.0272258)
(0.0551672 -0.179414 0.0247098)
(0.0396122 -0.177007 0.0286989)
(0.0534167 -0.179484 0.0256909)
(0.0449898 -0.170131 0.0343123)
(0.0652588 -0.206574 0.0293232)
(0.0449555 -0.193666 0.0183603)
(0.0661873 -0.189687 0.0302553)
(0.0457581 -0.177119 0.0255609)
(0.0402085 -0.185055 0.0178107)
(0.0556853 -0.191475 0.0313024)
(0.0454569 -0.179067 0.014851)
(0.0397627 -0.133648 0.0187741)
(0.0476734 -0.152941 0.0198769)
(0.0414658 -0.138953 0.0225762)
(0.037575 -0.163768 0.0254102)
(0.0393092 -0.166776 0.0199499)
(0.0429548 -0.190423 0.0305903)
(0.0364897 -0.164217 0.0155246)
(0.0426264 -0.168043 0.0248827)
(0.034429 -0.169724 0.0272577)
(0.0406067 -0.163261 0.0269912)
(0.0337722 -0.159252 0.0259271)
(0.0598996 -0.178275 0.0227763)
(0.0628813 -0.15358 0.0356799)
(0.0481113 -0.13448 0.0380789)
(0.0406172 -0.162313 0.0303807)
(0.0544165 -0.15191 0.0304907)
(0.0365274 -0.146481 0.0202677)
(0.0482608 -0.125576 0.0262184)
(0.0353711 -0.126692 0.0373197)
(0.0416626 -0.119727 0.0320608)
(0.0669251 -0.110296 0.0318602)
(0.0502215 -0.105299 0.0317707)
(0.0614061 -0.131467 0.0402355)
(0.0912104 -0.123582 0.051418)
(0.0524957 -0.111585 0.0382104)
(0.0389797 -0.101601 0.0275223)
(0.0564111 -0.103665 0.0420238)
(0.0450319 -0.103542 0.023185)
(0.0301848 -0.140632 0.0219847)
(0.0371023 -0.142458 0.0359405)
(0.0268221 -0.139524 0.0148884)
(0.116222 -0.106535 0.0440445)
(0.101111 -0.0990903 0.051301)
(0.0971872 -0.109068 0.0306724)
(0.136784 -0.121012 0.0360498)
(0.165915 -0.144588 0.0604905)
(0.0888929 -0.10849 0.0178778)
(0.0762628 -0.109396 0.0316534)
(0.0814379 -0.108336 0.0163659)
(0.0912048 -0.118759 0.051596)
(0.0851259 -0.113563 0.0282184)
(0.0755713 -0.121626 0.0374575)
(0.0968398 -0.121721 0.0292524)
(0.0680036 -0.0969449 0.0169186)
(0.0662521 -0.1121 0.0217003)
(0.0667762 -0.0989446 -0.00542198)
(0.0677285 -0.124381 0.0349103)
(0.063878 -0.116814 0.0349094)
(0.0708084 -0.111816 0.0190217)
(0.134789 -0.130739 0.044859)
(0.112443 -0.115834 0.0348597)
(0.105878 -0.12265 0.0259825)
(0.088766 -0.116524 0.0201693)
(0.136756 -0.143563 0.0364034)
(0.102598 -0.114074 0.0204251)
(0.0765378 -0.104013 0.0145826)
(0.0663333 -0.0931814 0.0102373)
(0.0636223 -0.105797 0.0104659)
(0.0639381 -0.0945402 -0.0112185)
(0.0875232 -0.103629 0.0116794)
(0.0639151 -0.0855492 0.016414)
(0.0726527 -0.0934966 0.00511901)
(0.0678441 -0.0904465 0.00831394)
(0.0708163 -0.129441 0.0336079)
(0.0710251 -0.141246 0.0394288)
(0.0710521 -0.138159 0.0295779)
(0.0612783 -0.107082 0.0242616)
(0.0718249 -0.125408 0.0343774)
(0.0656768 -0.114608 0.0189038)
(0.0703722 -0.0948702 0.0139302)
(0.0686079 -0.106828 0.0268263)
(0.0605215 -0.0969377 0.0116605)
(0.0740669 -0.0898647 0.00996336)
(0.0599833 -0.0912103 0.0143676)
(0.0734744 -0.0880736 0.00670798)
(0.0606361 -0.0835216 0.0133327)
(0.121687 -0.10945 0.0263058)
(0.081708 -0.0920395 0.0180265)
(0.0912653 -0.0916009 0.00926968)
(0.0875283 -0.091184 0.0104668)
(0.0833933 -0.0903495 0.00565324)
(0.102049 -0.0888962 0.0111451)
(0.080805 -0.0866047 0.0166439)
(0.0915895 -0.0767359 -0.00305249)
(0.0835767 -0.0824411 0.00377264)
(0.102041 -0.0886862 0.0197612)
(0.128514 -0.0812843 0.0137352)
(0.115052 -0.0767813 0.0133787)
(0.0758642 -0.093067 0.0194607)
(0.0840243 -0.086684 -0.00287288)
(0.072638 -0.0863135 0.0056734)
(0.192569 -0.152386 0.0511795)
(0.173098 -0.125507 0.0223699)
(0.150808 -0.116068 0.0233419)
(0.127993 -0.131318 0.0308309)
(0.112073 -0.112639 0.0127658)
(0.188799 -0.134381 0.0619452)
(0.147298 -0.116302 0.0270261)
(0.142574 -0.110127 0.0351362)
(0.0822655 -0.149756 0.0372942)
(0.0771421 -0.159248 0.0334613)
(0.0833276 -0.159126 0.0334958)
(0.0719988 -0.147437 0.0420935)
(0.0826672 -0.148885 0.0386862)
(0.0782299 -0.132655 0.0219399)
(0.100973 -0.180276 0.0447938)
(0.0842711 -0.157623 0.0356383)
(0.0919331 -0.149887 0.0315881)
(0.0771588 -0.136546 0.0361455)
(0.0825041 -0.117313 0.02648)
(0.0631232 -0.113227 0.0204429)
(0.0722089 -0.106308 0.0188022)
(0.0693295 -0.105848 0.0283855)
(0.0913728 -0.141555 0.0368522)
(0.0780453 -0.118153 0.0199788)
(0.100708 -0.120289 0.0264456)
(0.0735331 -0.103683 0.0207816)
(0.110159 -0.1795 0.0395538)
(0.11577 -0.179141 0.0400876)
(0.0935 -0.158898 0.0395295)
(0.111101 -0.146196 0.0378238)
(0.0908405 -0.139493 0.0318122)
(0.0896889 -0.149218 0.032862)
(0.116186 -0.122982 0.030519)
(0.10827 -0.160772 0.0448708)
(0.125827 -0.149271 0.0392556)
(0.0953315 -0.149662 0.0387767)
(0.121961 -0.121453 0.0405593)
(0.128438 -0.0824889 0.0124827)
(0.0904705 -0.0853283 0.00413915)
(0.0966429 -0.0628298 0.0143362)
(0.0871932 -0.0699818 0.00225277)
(0.0739495 -0.0974294 0.00940833)
(0.0972186 -0.0994627 0.0136082)
(0.0729133 -0.0829217 0.0128508)
(0.0854368 -0.100332 0.00620515)
(0.0963465 -0.0750473 0.0106071)
(0.0782479 -0.0753411 0.00347154)
(0.08829 -0.125787 0.0202641)
(0.107201 -0.0985934 0.0174069)
(0.0934359 -0.105472 0.0189242)
(0.10796 -0.0761395 0.0165472)
(0.0994181 -0.132791 0.0293759)
(0.116336 -0.0990544 0.0274672)
(0.0993453 -0.111572 0.027386)
(0.117704 -0.0800597 0.027037)
(0.10371 -0.134924 0.0410905)
(0.120424 -0.10156 0.0401762)
(0.10378 -0.115403 0.0367333)
(0.120928 -0.082466 0.0368607)
(0.122093 -0.18181 0.0429325)
(0.126409 -0.180081 0.0474362)
(0.113432 -0.163252 0.0469929)
(0.129582 -0.152438 0.0489108)
(0.094043 -0.146733 0.04617)
(0.117787 -0.116764 0.0486392)
(0.114076 -0.158404 0.0518177)
(0.127 -0.150414 0.0494256)
(0.10866 -0.145661 0.0585376)
(0.0916695 -0.14664 0.0534199)
(0.109656 -0.112098 0.055367)