/*--------------------------------*- C++ -*----------------------------------*\
| =========                 |                                                 |
| \\      /  F ield         | OpenFOAM: The Open Source CFD Toolbox           |
|  \\    /   O peration     | Version:  5.0                                   |
|   \\  /    A nd           | Web:      www.OpenFOAM.org                      |
|    \\/     M anipulation  |                                                 |
\*---------------------------------------------------------------------------*/
FoamFile
{
    version     2.0;
    format      ascii;
    class       volVectorField;
    location    "60";
    object      wallShearStressHyper;
}
// * * * * * * * * * * * * * * * * * * * * * * * * * * * * * * * * * * * * * //

dimensions      [1 -1 -2 0 0 0 0];

internalField   uniform (0 0 0);

boundaryField
{
    Wall_Aorta
    {
        type            calculated;
        value           nonuniform List<vector> 
14259
(
(0.0324665 -0.285679 -0.0428212)
(0.0275366 -0.261746 -0.0356477)
(-0.931453 0.693556 -0.0508517)
(-0.959013 0.7476 -0.0498587)
(1.27826 0.494695 -1.54851)
(-0.324895 0.0643492 -0.406372)
(-0.412818 0.226088 -0.359411)
(-0.104344 0.0535709 -0.0294171)
(-0.060188 0.0172787 -0.0485376)
(4.05285 4.44984 -0.446679)
(5.49432 5.4203 0.894249)
(6.0965 5.0886 1.04518)
(1.50915 1.16112 -2.4536)
(4.25459 4.28067 -1.01107)
(10.8621 6.86472 1.90582)
(9.71068 7.13893 1.69609)
(13.7527 21.9293 -1.01954)
(16.143 23.1494 -2.36387)
(14.7516 14.5465 2.31692)
(15.372 14.6156 1.64116)
(14.1216 13.9713 1.13673)
(12.8142 21.8367 0.95427)
(14.156 14.3002 0.608518)
(12.3588 17.1765 -2.16025)
(12.4378 18.0158 -2.29497)
(12.0821 17.0515 -1.82698)
(0.0785479 0.251808 -0.733876)
(0.13132 0.297291 -0.779964)
(0.159719 0.225369 -0.746807)
(0.167187 0.255821 -0.78769)
(-0.142914 0.238417 -0.444311)
(-0.126552 0.193567 -0.493477)
(0.0841335 -0.107147 -0.580757)
(0.141643 -0.150714 -0.623729)
(0.31014 -0.415873 -0.696993)
(0.337171 -0.37331 -0.80346)
(0.286739 -0.375082 -0.781338)
(0.297615 -0.391753 -0.763131)
(-4.66057 0.85679 -6.96473)
(-5.13925 0.567811 -6.64122)
(-4.83574 0.727105 -5.96266)
(-2.08609 0.938228 -3.47932)
(-2.18855 1.15394 -3.28043)
(-1.36047 1.22072 -2.10802)
(-1.18404 1.32561 -2.22935)
(-1.27754 3.42472 -5.70316)
(-2.15391 5.16591 -7.59684)
(-2.97261 6.27253 -10.468)
(-3.04206 7.46989 -12.8071)
(0.40756 2.81179 -7.60462)
(0.867729 2.95299 -8.72621)
(4.30167 -0.613833 -5.95298)
(4.03522 -0.356723 -4.80308)
(2.49871 -0.399625 -2.94783)
(1.77038 0.0348099 -2.08177)
(1.87266 -0.038888 -1.9896)
(2.47108 -0.211401 -3.0395)
(2.29328 -0.339902 -2.59774)
(2.2554 -0.297722 -2.24291)
(2.03752 -0.137714 -2.35724)
(2.0682 -0.17259 -2.21394)
(2.38309 -0.282911 -2.23715)
(1.99838 -0.169694 -1.67492)
(2.20478 -0.131937 -1.77871)
(2.34116 -0.00709145 -2.08714)
(2.22026 0.213789 -2.08063)
(1.90226 0.176708 -1.3426)
(1.86268 0.00961357 -1.56795)
(1.94286 0.0527823 -1.24417)
(1.80913 -0.0682249 -1.44757)
(1.64173 0.124347 -1.85909)
(1.86403 2.08443 -6.84161)
(1.2875 2.11872 -7.19374)
(7.21125 1.08874 -10.9186)
(8.82455 1.16268 -11.5641)
(0.741573 0.997768 -4.22074)
(1.15253 1.05621 -4.27447)
(-0.0222529 0.732697 -11.6819)
(32.8547 -13.9079 -55.6333)
(7.08564 0.960741 -6.63142)
(5.5992 1.53888 -3.74996)
(16.0486 1.41614 -8.58422)
(19.8529 1.35498 -7.87736)
(19.6138 1.83423 -7.96174)
(18.8507 1.94257 -8.28312)
(5.36726 8.20302 -12.5191)
(6.58681 11.3588 -15.9514)
(1.22908 -0.242864 -0.804034)
(1.30778 -0.186716 -0.758263)
(1.54232 -0.261889 -0.924385)
(1.58825 -0.284656 -0.958814)
(1.61681 -0.344716 -0.351234)
(1.76831 -0.413488 -0.584517)
(1.21543 -0.163976 -1.04531)
(1.31015 -0.165325 -1.12329)
(0.361653 -0.737348 -0.867504)
(0.357728 -0.76506 -0.965605)
(-0.0476853 -0.174775 -0.0869444)
(-0.0374977 -0.260501 -0.0609434)
(0.535189 -0.441295 0.190392)
(0.679085 -0.508345 0.132401)
(0.674226 -0.402717 0.157521)
(0.459737 -0.474267 0.117791)
(0.564739 -0.45628 0.130795)
(0.715316 -0.538412 0.0996978)
(0.693422 -0.423324 0.102812)
(0.478406 -0.51533 0.0569091)
(0.583971 -0.498329 0.0777204)
(0.504696 -0.467271 0.0128422)
(0.722231 -0.577269 0.0639647)
(0.680198 -0.457348 0.0727523)
(0.599489 -0.475976 -0.0162839)
(0.472877 -0.539921 0.0578215)
(0.575924 -0.498615 -0.0166862)
(0.400601 -0.486173 -0.0282591)
(0.492579 -0.533219 -0.010112)
(0.392366 -0.45344 -0.0332056)
(0.302486 -0.650882 0.215767)
(0.315427 -0.682718 0.267388)
(0.237295 -0.690362 0.273665)
(0.22226 -0.560429 0.134658)
(0.286588 -0.570777 0.123029)
(0.221529 -0.515402 0.0999547)
(0.16274 -0.499331 0.0436265)
(0.25337 -0.49287 0.0298429)
(0.22169 -0.504045 0.0564279)
(0.273736 -0.581529 0.0899782)
(0.321137 -0.609623 0.16268)
(0.250881 -0.588443 0.216947)
(0.342684 -0.598293 0.179555)
(0.373603 -0.598176 0.214476)
(0.294332 -0.59112 0.250439)
(0.316512 -0.57794 0.148548)
(0.35699 -0.60168 0.139336)
(0.287494 -0.542691 0.162001)
(0.372633 -0.576465 0.141608)
(0.255993 -0.577844 0.071196)
(0.231129 -0.617972 0.0932595)
(0.203413 -0.552937 0.105407)
(0.244705 -0.588332 0.12557)
(0.191028 -0.567564 0.0825334)
(0.188161 -0.652072 0.122452)
(0.222566 -0.670241 0.0718472)
(0.196275 -0.729579 0.0485481)
(0.173996 -0.700259 0.102521)
(0.153002 -0.758217 0.0674101)
(0.188534 -0.746227 0.221056)
(0.195711 -0.803348 0.220431)
(0.180427 -0.827513 0.171919)
(0.26 -0.622464 0.172132)
(0.245905 -0.667722 0.21239)
(0.190755 -0.722851 0.153017)
(0.207192 -0.746762 0.273718)
(0.167708 -0.841654 0.181419)
(0.16751 -0.844031 0.0970803)
(0.121601 -0.784642 0.0774747)
(0.158212 -0.865104 0.082869)
(0.141666 -0.821096 0.0132388)
(0.16213 -0.757963 0.132462)
(0.123371 -0.819454 0.0744529)
(0.25419 -0.565641 0.071152)
(0.220625 -0.549792 0.0982842)
(0.380575 -0.551354 0.303542)
(0.47901 -0.68353 0.433243)
(0.297584 -0.56753 0.429941)
(0.296152 -0.725432 0.336747)
(0.279041 -0.828198 0.375218)
(0.249751 -0.781454 0.355349)
(0.275139 -0.599108 0.332344)
(0.378508 -0.8037 0.465272)
(0.267819 -0.623277 0.373125)
(0.226383 -0.757099 0.357205)
(0.379135 -0.656357 0.292868)
(0.428761 -0.730925 0.377794)
(0.28631 -0.676341 0.403273)
(0.253134 -0.487601 0.292742)
(0.346001 -0.59832 0.404837)
(0.216238 -0.525154 0.330286)
(0.349486 -0.48248 0.348716)
(0.17167 -0.445294 0.280421)
(0.323891 -0.42843 0.258961)
(0.442812 -0.497579 0.364579)
(0.297146 -0.44303 0.375912)
(0.208721 -0.612803 0.348906)
(0.442376 -0.592464 0.262457)
(0.453905 -0.617692 0.253927)
(0.369618 -0.582893 0.346723)
(0.434992 -0.496096 0.264204)
(0.508673 -0.557658 0.279629)
(0.377537 -0.471888 0.344033)
(0.419906 -0.580457 0.203504)
(0.437431 -0.555503 0.197766)
(0.443556 -0.513694 0.207245)
(0.516178 -0.537647 0.219472)
(0.290364 -0.86981 0.345523)
(0.201042 -0.825281 0.252304)
(0.186411 -0.894795 0.274494)
(0.208367 -0.83324 0.28706)
(0.216599 -0.831188 0.258176)
(0.190249 -0.891684 0.190641)
(0.143779 -0.831073 0.0951795)
(0.182606 -0.882065 0.110889)
(0.228345 -0.828701 0.192052)
(0.210865 -0.80024 0.100494)
(0.230157 -0.815359 0.117576)
(0.252236 -0.781299 0.182508)
(0.219024 -0.768445 0.164773)
(0.26482 -0.76375 0.10662)
(0.2593 -0.758279 0.10714)
(0.280352 -0.713505 0.127809)
(0.313543 -0.756909 0.1097)
(0.274541 -0.73922 0.0998406)
(0.14423 -0.461827 -0.00577773)
(0.254067 -0.486604 0.0194383)
(0.252039 -0.535611 0.0397274)
(0.195409 -0.465994 -0.0399385)
(0.227721 -0.521548 -0.0212478)
(0.307659 -0.579654 0.0994834)
(0.343582 -0.569224 0.0898146)
(0.368293 -0.585487 0.109453)
(0.281436 -0.568524 0.0405443)
(0.32304 -0.552719 0.0121726)
(0.363929 -0.594476 0.055031)
(0.169878 -0.467675 -0.0642466)
(0.198977 -0.534361 -0.0676206)
(0.0870595 -0.470035 -0.0908367)
(0.177413 -0.483874 -0.0888212)
(0.124752 -0.469222 -0.119181)
(0.183565 -0.523491 -0.104118)
(0.239042 -0.567563 -0.0292161)
(0.290248 -0.552004 -0.0361677)
(0.250528 -0.526738 -0.099569)
(0.339118 -0.611519 -0.00900225)
(0.196215 -0.562536 -0.0752725)
(0.262173 -0.592399 -0.0633504)
(0.295291 -0.606802 -0.0791524)
(0.231593 -0.572251 -0.128818)
(0.42214 -0.581016 0.131528)
(0.449414 -0.543894 0.132846)
(0.464983 -0.530898 0.141558)
(0.539519 -0.541812 0.145835)
(0.414679 -0.612882 0.0689278)
(0.448147 -0.568944 0.0604431)
(0.477704 -0.563055 0.05978)
(0.533217 -0.572531 0.077911)
(0.471104 -0.510027 0.00877756)
(0.426113 -0.583464 -0.00530228)
(0.42866 -0.600687 0.0023166)
(0.379484 -0.573022 -0.0714386)
(0.458629 -0.58635 0.0289523)
(0.385959 -0.616792 -0.035088)
(0.419552 -0.64271 -0.0675604)
(0.328931 -0.57378 -0.112355)
(0.341829 -0.631593 -0.0484457)
(0.426897 -0.542863 0.0591338)
(0.530948 -0.532117 -0.0231156)
(0.41092 -0.565654 -0.0317027)
(0.480673 -0.594722 -0.0304427)
(0.361251 -0.533923 -0.0819342)
(0.0502051 -0.385811 -0.304521)
(0.0400849 -0.372951 -0.269486)
(-0.0161134 -0.324073 -0.233453)
(0.0470227 -0.360754 -0.21993)
(-0.00819654 -0.270416 -0.159318)
(0.0135547 -0.323409 -0.184306)
(-0.000862002 -0.297343 -0.148415)
(0.0532894 -0.470516 -0.190749)
(0.13471 -0.46769 -0.230986)
(0.0286945 -0.428866 -0.147072)
(0.08007 -0.415211 -0.144587)
(0.0439948 -0.373624 -0.119674)
(0.0413327 -0.385757 -0.215828)
(0.0132107 -0.36447 -0.167264)
(-0.0121895 -0.255483 -0.132739)
(0.00577069 -0.252499 -0.0873913)
(-0.0070596 -0.265261 -0.092904)
(-0.014625 -0.268547 -0.0687576)
(-0.0331251 -0.30851 -0.119717)
(0.025078 -0.2888 -0.0989703)
(-0.0147767 -0.262498 -0.0617997)
(0.0151642 -0.333882 -0.100288)
(0.01419 -0.298622 -0.0681129)
(-0.0396433 -0.242195 -0.0451532)
(0.00628606 -0.263867 -0.0607364)
(-0.00808781 -0.234516 -0.00390391)
(-0.0067269 -0.271196 -0.033726)
(0.00614271 -0.264443 -0.020991)
(0.124709 -0.502112 -0.166564)
(0.123965 -0.514735 -0.100007)
(0.0851174 -0.459476 -0.11682)
(0.070378 -0.406481 -0.100396)
(0.0978871 -0.480587 -0.0951105)
(0.0659324 -0.445202 -0.0847996)
(0.0739744 -0.487087 -0.0707988)
(0.166959 -0.545971 -0.0902258)
(0.105072 -0.492934 -0.0787989)
(0.128611 -0.49337 -0.108608)
(0.107188 -0.518889 -0.0541335)
(0.0450572 -0.498436 -0.0671124)
(0.13781 -0.554701 -0.0730906)
(0.0761046 -0.478977 -0.0323709)
(0.0307616 -0.354162 -0.0594261)
(0.0295818 -0.321649 -0.0463307)
(0.0471012 -0.407663 -0.033172)
(0.0408874 -0.373826 -0.0276718)
(0.00279271 -0.289172 -0.0105784)
(0.0141794 -0.276742 -0.00684893)
(0.019362 -0.312685 0.00980589)
(0.0299662 -0.303821 -0.000512292)
(0.0448037 -0.484667 -0.0369887)
(0.0927956 -0.479798 -0.0356558)
(0.0479031 -0.433661 0.0137574)
(0.0850285 -0.510546 -0.0322087)
(0.0775448 -0.496653 -0.0094478)
(0.0609097 -0.429312 -0.000540782)
(0.0563006 -0.472464 0.0222519)
(0.0681838 -0.466122 0.0340946)
(0.0546238 -0.338481 0.0131087)
(0.0646238 -0.386565 0.0238061)
(0.0371044 -0.32189 -0.0436589)
(0.0764424 -0.517168 -0.0958083)
(0.153865 -0.550354 -0.0937501)
(0.113102 -0.504004 -0.10867)
(0.177296 -0.580522 -0.122268)
(0.128131 -0.585369 -0.152789)
(0.190045 -0.618134 -0.0973973)
(0.0942582 -0.624707 -0.11152)
(0.141097 -0.669589 -0.0973994)
(0.066535 -0.597747 -0.0889016)
(0.103515 -0.515493 -0.0923128)
(0.088178 -0.535843 -0.104969)
(0.0833061 -0.510077 -0.0698099)
(0.0804653 -0.531435 -0.0929604)
(0.0733724 -0.527861 -0.07263)
(0.0941871 -0.578607 -0.0826825)
(0.067044 -0.591081 -0.0968061)
(0.0602761 -0.624205 -0.0852883)
(0.0675263 -0.523402 -0.0247299)
(0.0805003 -0.542799 0.00713052)
(0.0519472 -0.55591 -0.027498)
(0.0561466 -0.588109 0.00402993)
(0.0819651 -0.546354 0.0290761)
(0.0925027 -0.53527 0.0526025)
(0.0608116 -0.616328 0.0402916)
(0.0787078 -0.639373 0.0706791)
(0.0292925 -0.617088 -0.0268836)
(0.0313342 -0.640293 -0.000861726)
(0.0164429 -0.634128 -0.0132179)
(0.0277046 -0.654491 0.00605276)
(0.0361554 -0.660611 0.041123)
(0.0551855 -0.691257 0.0851763)
(0.0359522 -0.663214 0.0602338)
(0.0459571 -0.668381 0.107426)
(0.227672 -0.61297 -0.100897)
(0.274651 -0.674925 -0.107092)
(0.204584 -0.581042 -0.120473)
(0.308476 -0.643741 -0.0639516)
(0.220424 -0.620524 -0.148466)
(0.147817 -0.624997 -0.0978162)
(0.106693 -0.627335 -0.0997215)
(0.153697 -0.621219 -0.0569395)
(0.110749 -0.617331 -0.0629325)
(0.30772 -0.587934 0.00331273)
(0.366068 -0.670877 -0.0890356)
(0.264372 -0.561893 -0.0751941)
(0.32003 -0.513425 0.0306832)
(0.383089 -0.601854 -0.0541428)
(0.288525 -0.53571 -0.0225797)
(0.276464 -0.559849 -0.0282158)
(0.204039 -0.598911 0.0126667)
(0.231723 -0.698538 -0.0542796)
(0.158338 -0.602513 -0.0058971)
(0.130422 -0.599896 0.00679047)
(0.20112 -0.55944 0.0250669)
(0.186489 -0.583905 0.00802232)
(0.159531 -0.558682 0.0582638)
(0.0757865 -0.609716 -0.0505494)
(0.0879481 -0.587591 -0.000439621)
(0.107693 -0.571346 0.050419)
(0.105389 -0.525453 0.102229)
(0.115376 -0.528333 0.130837)
(0.0998703 -0.489179 0.181643)
(0.126883 -0.497952 0.168619)
(0.123908 -0.407403 0.156718)
(0.208063 -0.427972 0.231684)
(0.148877 -0.411994 0.152483)
(0.0150107 -0.607297 0.0187394)
(0.0226272 -0.619089 0.0248202)
(0.0261635 -0.56285 0.0573826)
(0.0348367 -0.590245 0.0522584)
(0.0325333 -0.621007 0.081786)
(0.0371598 -0.633869 0.128454)
(0.0415197 -0.582146 0.124407)
(0.0418771 -0.497141 0.131198)
(0.0980494 -0.489912 0.17367)
(0.0412165 -0.539007 0.11066)
(0.0579571 -0.505683 0.0793743)
(0.085343 -0.501101 0.110624)
(0.0379404 -0.50057 0.0155472)
(0.0537592 -0.45945 0.132871)
(0.063118 -0.445089 0.164322)
(0.0599744 -0.499256 0.0768809)
(0.00699833 -0.271914 -0.0439851)
(-0.00890586 -0.262164 -0.0380332)
(-0.0594564 -0.25804 -0.102575)
(-0.0432781 -0.222825 -0.207439)
(-0.0215858 -0.266481 -0.230099)
(0.0101089 -0.224728 -0.208683)
(-0.0315162 -0.235693 -0.170885)
(0.00434096 -0.30464 -0.274825)
(-0.0147752 -0.251814 -0.257684)
(0.0290606 -0.228437 -0.236504)
(-0.0211115 -0.258592 -0.240887)
(-0.054907 -0.215886 -0.197363)
(-0.0227884 -0.185618 -0.190173)
(-0.0673309 -0.223334 -0.163933)
(-0.0877312 -0.218562 -0.160683)
(-0.0298214 -0.244381 -0.172637)
(-0.0575382 -0.258651 -0.121479)
(-0.0269978 -0.243557 -0.239893)
(-0.0375323 -0.246624 -0.231316)
(0.0232179 -0.244994 -0.2138)
(-0.0464155 -0.244433 -0.194772)
(0.0307112 -0.329062 -0.287197)
(0.0288103 -0.299375 -0.28406)
(0.0591754 -0.345581 -0.286933)
(0.0555523 -0.33718 -0.28659)
(0.0127366 -0.314861 -0.278677)
(0.0453888 -0.342457 -0.286876)
(0.00647728 -0.265451 -0.278909)
(0.0697565 -0.24814 -0.258663)
(0.0111451 -0.265733 -0.275075)
(0.0237473 -0.313693 -0.306916)
(0.0951211 -0.285447 -0.298739)
(0.0979295 -0.383963 -0.0707727)
(0.0515363 -0.36827 -0.0356664)
(0.0106105 -0.337792 -0.0685796)
(0.168807 -0.48588 -0.0440823)
(0.143362 -0.5714 -0.0295258)
(0.0917107 -0.46335 0.01905)
(0.0894418 -0.51509 -0.0807003)
(0.0557003 -0.439538 -0.025006)
(-0.0153604 -0.314855 -0.0991975)
(-0.0909414 -0.292233 -0.131147)
(-0.00116515 -0.340305 -0.145915)
(-0.0299817 -0.298466 -0.0770299)
(-0.0431236 -0.396658 -0.100385)
(0.0557236 -0.477738 -0.102272)
(0.0233978 -0.408802 -0.0417503)
(0.0147281 -0.425213 -0.159576)
(0.170775 -0.624717 -0.0342021)
(0.142097 -0.592662 -0.0551984)
(0.18767 -0.679125 -0.000649714)
(0.1624 -0.675603 -0.0408047)
(0.117394 -0.564818 -0.0882751)
(0.056036 -0.462902 -0.152446)
(0.101893 -0.49487 -0.141183)
(0.153288 -0.682134 -0.0907496)
(0.106904 -0.597532 -0.138229)
(0.190904 -0.727139 -0.118998)
(0.12764 -0.610161 -0.0811917)
(0.164414 -0.63291 -0.152896)
(-0.0214835 -0.296391 -0.215415)
(-0.0232455 -0.327213 -0.192548)
(-0.0247749 -0.33235 -0.202917)
(0.0676035 -0.341158 -0.172785)
(0.0127095 -0.341401 -0.164263)
(-0.0102498 -0.290634 -0.269514)
(0.0883968 -0.3019 -0.226502)
(0.00684724 -0.301954 -0.251825)
(0.0387675 -0.352458 -0.219441)
(0.0722497 -0.323551 -0.286576)
(0.0392245 -0.332494 -0.266529)
(0.161547 -0.33979 -0.233738)
(0.0832631 -0.344608 -0.257717)
(0.0237566 -0.40961 -0.213647)
(0.17841 -0.507464 -0.170689)
(0.0659047 -0.40465 -0.160023)
(0.120814 -0.479622 -0.245358)
(0.102184 -0.572815 -0.218803)
(0.273505 -0.682608 -0.179377)
(0.179085 -0.582361 -0.182005)
(0.0818971 -0.358925 -0.268428)
(0.0793444 -0.360865 -0.278144)
(0.10214 -0.374992 -0.250694)
(0.101001 -0.368048 -0.26511)
(0.0822742 -0.365129 -0.281055)
(0.118699 -0.376963 -0.265135)
(0.047004 -0.330118 -0.284869)
(0.125463 -0.294192 -0.273272)
(0.0672432 -0.329158 -0.263725)
(0.145312 -0.302297 -0.251041)
(0.123303 -0.388842 -0.238891)
(0.127923 -0.365647 -0.243996)
(0.119476 -0.389079 -0.200024)
(0.157674 -0.35963 -0.171362)
(0.0732371 -0.335257 -0.194391)
(0.140824 -0.325202 -0.185157)
(0.139466 -0.323262 -0.200103)
(0.14285 -0.373829 -0.231136)
(0.151883 -0.384288 -0.221018)
(0.165839 -0.322829 -0.194072)
(0.0499027 -0.324087 -0.21701)
(0.146089 -0.310965 -0.231976)
(0.128235 -0.313479 -0.238217)
(0.107955 -0.333552 -0.274938)
(0.0714926 -0.35519 -0.271947)
(0.18324 -0.36475 -0.26072)
(0.138941 -0.333468 -0.261221)
(0.0976535 -0.357667 -0.260419)
(0.207322 -0.35927 -0.236795)
(0.138775 -0.500203 -0.22983)
(0.141431 -0.590719 -0.220911)
(0.296302 -0.699109 -0.195454)
(0.168586 -0.500449 -0.21548)
(0.163363 -0.590061 -0.202913)
(0.319573 -0.696622 -0.16672)
(0.160214 -0.337552 -0.234506)
(0.0834454 -0.356725 -0.220057)
(0.202137 -0.33498 -0.215016)
(0.162157 -0.329317 -0.237754)
(0.0969367 -0.33143 -0.183863)
(0.180611 -0.284614 -0.167775)
(0.156172 -0.293882 -0.190707)
(0.172973 -0.382567 -0.167525)
(0.190425 -0.477975 -0.186153)
(0.184038 -0.578086 -0.186071)
(0.330475 -0.675214 -0.143082)
(0.220302 -0.413352 -0.151618)
(0.17307 -0.570993 -0.140322)
(0.330371 -0.645525 -0.127389)
(0.25905 -0.558337 -0.173549)
(0.171213 -0.759587 0.0139785)
(0.166628 -0.781443 -0.0309252)
(0.129306 -0.807151 0.0266285)
(0.136275 -0.860703 -0.0408529)
(0.193439 -0.787433 -0.0958102)
(0.160712 -0.78723 -0.0896739)
(0.13265 -0.857073 -0.104568)
(0.168 -0.927668 -0.0920165)
(0.112281 -0.828935 -0.0336434)
(0.0926869 -0.831172 0.0269677)
(0.138587 -0.811931 -0.0505078)
(0.103059 -0.843575 -0.0591483)
(0.144234 -0.816155 0.0224845)
(0.132374 -0.815979 -0.0619338)
(0.121554 -0.818817 -0.0437534)
(0.167357 -0.792255 -0.141137)
(0.251046 -0.964869 -0.1278)
(0.157829 -0.751442 -0.0916627)
(0.224705 -0.920207 -0.111141)
(0.264895 -0.868078 -0.176797)
(0.207385 -0.996547 -0.121322)
(0.26108 -1.077 -0.155588)
(0.217227 -0.916073 -0.130289)
(0.215261 -0.926181 -0.174992)
(0.149884 -0.830719 -0.131022)
(0.194663 -0.886795 -0.138912)
(0.1927 -0.824293 -0.135173)
(0.238713 -0.978042 -0.126491)
(0.251303 -0.866023 -0.162318)
(0.167125 -0.777035 0.00506651)
(0.161875 -0.794761 -0.0603046)
(0.145059 -0.78745 -0.0492182)
(0.22432 -0.755216 0.00567662)
(0.146083 -0.737463 -0.0638493)
(0.247213 -0.734463 -0.0452083)
(0.16141 -0.723629 -0.0101449)
(0.231071 -0.706505 0.0206859)
(0.264871 -0.705917 -0.0115991)
(0.219255 -0.662517 0.00658343)
(0.348148 -0.737254 0.0662086)
(0.293678 -0.667203 0.0871812)
(0.229908 -0.775414 -0.0407722)
(0.155144 -0.810351 -0.0856044)
(0.2548 -0.787045 -0.0887094)
(0.190883 -0.754264 -0.0929865)
(0.276914 -0.8473 -0.0841593)
(0.223441 -0.769959 -0.063285)
(0.319513 -0.709425 -0.0434651)
(0.262518 -0.694581 -0.106485)
(0.201339 -0.673321 -0.0500033)
(0.312307 -0.638593 -0.0165257)
(0.224709 -0.607434 -0.0435251)
(0.32072 -0.707238 0.0373939)
(0.303327 -0.746339 -0.0318113)
(0.242673 -0.593077 -0.00685271)
(0.363064 -0.575364 0.0323315)
(0.318116 -0.599327 -0.0286208)
(0.28623 -0.906467 -0.158146)
(0.356603 -1.05692 -0.13641)
(0.307614 -0.918136 -0.13515)
(0.35251 -1.07282 -0.117412)
(0.240308 -1.08788 -0.130823)
(0.2651 -0.979345 -0.115874)
(0.260798 -0.957534 -0.17659)
(0.258336 -0.89363 -0.100075)
(0.258864 -1.10473 -0.114076)
(0.301701 -0.941851 -0.0713714)
(0.27776 -0.879112 -0.0282583)
(0.322131 -0.910945 -0.11499)
(0.397596 -1.07374 -0.0986694)
(0.346045 -0.871018 -0.088047)
(0.282017 -1.01158 -0.0760205)
(0.298651 -1.01285 0.026481)
(0.266881 -0.895717 -0.0314707)
(0.252562 -1.06759 -0.0655359)
(0.271106 -0.903644 -0.0184907)
(0.262087 -0.887135 -0.0142836)
(0.269654 -0.893435 0.0303897)
(0.286616 -0.915498 0.0359446)
(0.296287 -0.820216 0.0976668)
(0.287355 -0.811424 -0.057688)
(0.255883 -0.771027 -0.0419759)
(0.349117 -0.686435 -0.0358985)
(0.311371 -0.794328 -0.0234968)
(0.264041 -0.74404 0.00220146)
(0.351544 -0.656712 0.0302044)
(0.315079 -0.697725 0.00915486)
(0.28072 -0.556538 0.0418148)
(0.378274 -0.51126 0.0464208)
(0.317078 -0.652221 0.0631008)
(0.269153 -0.505692 0.088892)
(0.363079 -0.470679 0.103422)
(0.259144 -0.667909 0.117479)
(0.318985 -0.788359 0.0279643)
(0.248475 -0.696056 0.0561952)
(0.329353 -0.618457 0.0587415)
(0.262408 -0.62883 0.10325)
(0.227774 -0.738807 0.0692904)
(0.283125 -0.655643 0.112098)
(0.225521 -0.661214 0.116762)
(0.294246 -0.626311 0.114193)
(0.230461 -0.465591 0.132553)
(0.338888 -0.43053 0.124315)
(0.270901 -0.448233 0.162161)
(0.206199 -0.506483 0.170078)
(0.273432 -0.436202 0.191426)
(0.266915 -0.52059 0.182565)
(0.00943373 -0.28107 -0.059837)
(-0.0293666 -0.228116 -0.0315479)
(0.00028039 -0.240918 -0.0401748)
(0.00714848 -0.221759 0.0171307)
(0.0249529 -0.241734 0.0180893)
(0.0543934 -0.315885 -0.0394741)
(0.0795869 -0.3252 -0.0497896)
(0.104458 -0.315093 -0.0402834)
(0.0799279 -0.275399 -0.0196299)
(0.0616112 -0.291525 -0.0262027)
(0.0435972 -0.257323 0.0372821)
(-0.00168795 -0.255688 -0.0185696)
(0.0270492 -0.268622 -0.00292781)
(0.0149072 -0.255398 -0.00360327)
(0.0357771 -0.260643 0.00574477)
(0.138965 -0.330474 -0.064423)
(0.107082 -0.307499 -0.0130436)
(0.136996 -0.309552 -0.0505777)
(0.121846 -0.291518 -0.0110335)
(0.0760461 -0.28552 -0.0236312)
(0.0521853 -0.282263 0.00434129)
(0.0890621 -0.27906 -0.0164131)
(0.0623263 -0.268745 0.0102748)
(0.154595 -0.389943 -0.160636)
(0.138502 -0.369855 -0.176153)
(0.169127 -0.332977 -0.122124)
(0.100458 -0.37585 -0.129797)
(0.141948 -0.368619 -0.115054)
(0.13037 -0.351369 -0.123721)
(0.157044 -0.375466 -0.12226)
(0.150894 -0.343992 -0.143814)
(0.175837 -0.313739 -0.131013)
(0.108424 -0.317476 -0.161862)
(0.171123 -0.300644 -0.138771)
(0.161813 -0.303834 -0.158464)
(0.151742 -0.335003 -0.111844)
(0.155714 -0.309562 -0.0582772)
(0.159634 -0.334813 -0.117283)
(0.167584 -0.304801 -0.0622001)
(0.118817 -0.350981 -0.0991649)
(0.104144 -0.330307 -0.0533509)
(0.097086 -0.330695 -0.0708311)
(0.127388 -0.319862 -0.0707891)
(0.103175 -0.301173 -0.0715621)
(0.293174 -0.662551 -0.0991701)
(0.230326 -0.49686 -0.0783123)
(0.200346 -0.420878 -0.0321708)
(0.233745 -0.569701 -0.0371267)
(0.264102 -0.641533 -0.00668066)
(0.206621 -0.504873 -0.0446352)
(0.0259777 -0.26556 0.00716341)
(0.0478731 -0.271806 0.0156898)
(0.0401037 -0.297016 0.012089)
(0.0738294 -0.286288 0.0225362)
(0.0585932 -0.29529 0.0242517)
(0.153215 -0.31409 -0.0465017)
(0.133283 -0.296855 -0.00754001)
(0.106963 -0.328451 0.0143467)
(0.145689 -0.333493 -0.0642102)
(0.173437 -0.34585 -0.018297)
(0.142041 -0.329769 -0.0381512)
(0.0812485 -0.278038 -0.0162638)
(0.0899747 -0.284546 0.0170219)
(0.0745431 -0.263296 -0.0105149)
(0.0886411 -0.442229 0.0437253)
(0.114546 -0.434252 0.0500535)
(0.0644883 -0.362267 0.0551726)
(0.0516298 -0.32515 -0.0200848)
(0.0715301 -0.295112 0.027716)
(0.0748225 -0.335976 0.0551194)
(0.0722838 -0.299113 -0.0127748)
(0.175607 -0.397157 -0.00500378)
(0.128768 -0.342571 0.0282694)
(0.155143 -0.453618 0.00595867)
(0.16572 -0.541717 0.0756107)
(0.139763 -0.414986 0.00328981)
(0.184405 -0.356211 -0.154499)
(0.195674 -0.325921 -0.11637)
(0.17304 -0.325323 -0.083331)
(0.178936 -0.30419 -0.0676392)
(0.149725 -0.33723 -0.101866)
(0.221821 -0.348055 -0.085974)
(0.179484 -0.317629 -0.0971792)
(0.151021 -0.42705 -0.124295)
(0.272441 -0.46882 -0.105163)
(0.216004 -0.416246 -0.157876)
(0.259105 -0.771707 -0.0584002)
(0.279907 -0.903579 0.00505673)
(0.230685 -0.696876 -0.0634888)
(0.292136 -0.889866 0.0462751)
(0.245563 -0.727454 0.0367023)
(0.193004 -0.659755 0.0874231)
(0.24677 -0.79066 0.11992)
(0.204748 -0.738936 0.115364)
(0.134808 -0.748941 0.154793)
(0.207468 -0.737639 0.136226)
(0.159239 -0.710112 0.183803)
(0.275325 -0.843647 0.132944)
(0.20336 -0.793519 0.0831488)
(0.267032 -0.746555 0.135251)
(0.185819 -0.722521 0.13785)
(0.171287 -0.767814 0.0872372)
(0.216759 -0.77979 0.149115)
(0.181576 -0.7546 0.0886665)
(0.114925 -0.533776 0.0712741)
(0.154079 -0.603514 0.0827863)
(0.135877 -0.544569 0.0790582)
(0.0993582 -0.686532 0.115367)
(0.134668 -0.697943 0.102617)
(0.137683 -0.785786 0.148062)
(0.106953 -0.68918 0.0775143)
(0.125757 -0.709643 0.135009)
(0.0847244 -0.733818 0.135512)
(0.125163 -0.695184 0.150624)
(0.0810222 -0.68735 0.138577)
(0.240819 -0.710662 0.122907)
(0.24864 -0.58543 0.172096)
(0.170265 -0.516698 0.199731)
(0.16269 -0.667611 0.163314)
(0.200897 -0.591171 0.166656)
(0.124657 -0.615297 0.141173)
(0.161176 -0.486415 0.147713)
(0.0949679 -0.516861 0.202246)
(0.158074 -0.444871 0.157542)
(0.229154 -0.380395 0.15554)
(0.175694 -0.388655 0.173453)
(0.190832 -0.483483 0.195367)
(0.297665 -0.427012 0.223353)
(0.161643 -0.419362 0.191334)
(0.120274 -0.37986 0.154005)
(0.174379 -0.363412 0.19185)
(0.137654 -0.398985 0.141108)
(0.0866492 -0.599278 0.139439)
(0.103112 -0.579795 0.193197)
(0.0514953 -0.608422 0.107799)
(0.248662 -0.344918 0.288571)
(0.230903 -0.342483 0.261941)
(0.208215 -0.403169 0.195051)
(0.361214 -0.426436 0.224596)
(0.53444 -0.537147 0.342479)
(0.185548 -0.41885 0.0882247)
(0.179668 -0.453772 0.132347)
(0.194542 -0.439181 0.0663355)
(0.218552 -0.479806 0.260871)
(0.178594 -0.447509 0.164958)
(0.163503 -0.492644 0.185872)
(0.234959 -0.467643 0.142239)
(0.135313 -0.405508 0.0685186)
(0.15018 -0.473909 0.0903175)
(0.146204 -0.394462 -0.0159608)
(0.139657 -0.520381 0.153269)
(0.136716 -0.515584 0.138156)
(0.169093 -0.464083 0.0509072)
(0.370331 -0.514305 0.254126)
(0.322117 -0.430544 0.168489)
(0.292818 -0.495777 0.131473)
(0.231761 -0.471015 0.0942635)
(0.474427 -0.583701 0.183015)
(0.316687 -0.474827 0.0855786)
(0.184997 -0.42426 0.0549231)
(0.149939 -0.39597 0.0192588)
(0.16435 -0.453253 0.0210811)
(0.142425 -0.390039 -0.0677503)
(0.237305 -0.431234 0.0317401)
(0.150979 -0.370848 0.0330443)
(0.204675 -0.401673 -0.0163803)
(0.16476 -0.391008 0.0095509)
(0.171792 -0.5733 0.115199)
(0.226513 -0.651945 0.111194)
(0.203221 -0.626265 0.0891567)
(0.145359 -0.476508 0.0558764)
(0.240687 -0.564317 0.0746802)
(0.186953 -0.509904 0.0264039)
(0.183896 -0.407864 0.00201696)
(0.233284 -0.466195 0.0338469)
(0.176085 -0.421949 -0.0138741)
(0.209945 -0.389068 -0.0269172)
(0.207453 -0.390823 -0.00972141)
(0.252902 -0.356839 -0.0362987)
(0.189202 -0.360576 -0.0159556)
(0.416567 -0.471762 0.103575)
(0.213821 -0.391971 0.0523182)
(0.303229 -0.408318 0.0129726)
(0.256867 -0.40143 0.0214583)
(0.252288 -0.389458 -0.0435455)
(0.354144 -0.378257 -0.0102854)
(0.26537 -0.358067 0.00195178)
(0.32171 -0.31187 -0.0685362)
(0.279917 -0.348771 -0.0634187)
(0.344508 -0.374648 0.035363)
(0.48921 -0.341615 0.0135934)
(0.425295 -0.333713 -0.00643725)
(0.245466 -0.383408 0.00922623)
(0.28915 -0.357741 -0.0768708)
(0.232728 -0.367288 -0.0514483)
(0.807018 -0.624096 0.132846)
(0.73361 -0.509188 0.0329158)
(0.615388 -0.481935 -0.0142945)
(0.466936 -0.514509 0.0360833)
(0.399697 -0.483565 -0.0540291)
(0.80556 -0.585621 0.204476)
(0.624125 -0.515757 0.0640296)
(0.574172 -0.49057 0.0708766)
(0.284046 -0.682168 0.0905338)
(0.301734 -0.715811 0.0817255)
(0.320052 -0.707164 0.0802365)
(0.269204 -0.680184 0.124767)
(0.327404 -0.646595 0.0960409)
(0.278047 -0.58258 0.0207758)
(0.399174 -0.777869 0.129414)
(0.356243 -0.675367 0.0939732)
(0.372503 -0.624759 0.0801639)
(0.304327 -0.591866 0.0846066)
(0.311709 -0.483865 0.0405366)
(0.256943 -0.488066 0.0231444)
(0.282153 -0.437497 0.0204563)
(0.254594 -0.45745 0.0417606)
(0.376782 -0.585941 0.0983141)
(0.330997 -0.473923 0.0369198)
(0.388523 -0.464994 0.0572536)
(0.295249 -0.424272 0.0234583)
(0.450883 -0.742603 0.119111)
(0.465617 -0.715782 0.136462)
(0.405367 -0.646662 0.13292)
(0.430422 -0.568398 0.114372)
(0.376367 -0.571756 0.0846482)
(0.367559 -0.596026 0.102081)
(0.443 -0.461589 0.0889621)
(0.455903 -0.639712 0.160976)
(0.477996 -0.565934 0.13462)
(0.385201 -0.584892 0.14441)
(0.458226 -0.44512 0.145728)
(0.474057 -0.324558 0.0127479)
(0.327564 -0.329103 -0.0343815)
(0.352692 -0.225173 0.00763433)
(0.316567 -0.282229 -0.0616187)
(0.291505 -0.393495 -0.0232359)
(0.367279 -0.388241 -0.00713139)
(0.260072 -0.339167 -0.0287307)
(0.325968 -0.396194 -0.0328942)
(0.358244 -0.275793 -0.0148061)
(0.28405 -0.305261 -0.0701524)
(0.35128 -0.502759 0.0310664)
(0.406569 -0.369722 0.021457)
(0.366811 -0.410076 0.0331014)
(0.40143 -0.268349 0.0214806)
(0.39939 -0.517561 0.0900967)
(0.437549 -0.354895 0.0792189)
(0.390658 -0.422849 0.0881684)
(0.432936 -0.270548 0.0809769)
(0.41024 -0.516992 0.15969)
(0.446108 -0.357931 0.148638)
(0.40141 -0.431486 0.145254)
(0.439346 -0.276026 0.137771)
(0.482489 -0.713129 0.163817)
(0.490482 -0.700202 0.200637)
(0.470511 -0.638013 0.185768)
(0.485448 -0.56762 0.186124)
(0.371925 -0.563187 0.190571)
(0.434201 -0.419406 0.193589)
(0.462883 -0.606021 0.217658)
(0.470789 -0.554054 0.204421)
(0.423245 -0.552533 0.259964)
(0.350075 -0.558381 0.235961)
(0.395098 -0.399766 0.234076)
(0.367655 -0.654235 0.233362)
(0.441342 -0.552657 0.286079)
(0.342818 -0.597746 0.246043)
(0.393357 -0.524442 0.244912)
(0.285842 -0.528811 0.285739)
(0.271637 -0.43626 0.246529)
(0.345294 -0.402893 0.322837)
(0.24126 -0.437629 0.307989)
(0.403734 -0.584604 0.250219)
(0.352857 -0.45675 0.289895)
(0.384761 -0.381763 0.244696)
(0.296169 -0.426717 0.294148)
(0.346184 -0.557098 0.263728)
(0.367743 -0.433275 0.303371)
(0.272668 -0.515614 0.320048)
(0.299089 -0.447684 0.231053)
(0.35434 -0.389757 0.283678)
(0.338291 -0.399732 0.250989)
(0.327457 -0.394618 0.26211)
(0.391743 -0.331689 0.328804)
(0.303311 -0.37118 0.32577)
(0.26182 -0.447382 0.27435)
(0.330733 -0.379198 0.321042)
(0.263094 -0.456009 0.274883)
(0.25418 -0.377629 0.260146)
(0.292671 -0.348562 0.329853)
(0.272291 -0.374579 0.29845)
(0.393056 -0.504209 0.217252)
(0.43641 -0.362615 0.206197)
(0.397932 -0.438264 0.199324)
(0.423308 -0.288514 0.196246)
(0.362369 -0.488772 0.262742)
(0.435055 -0.381019 0.268849)
(0.393617 -0.423492 0.256455)
(0.427593 -0.308154 0.225863)
(0.361873 -0.363562 0.296158)
(0.397639 -0.421709 0.330535)
(0.343285 -0.463353 0.287049)
(0.37902 -0.384945 0.288042)