/*--------------------------------*- C++ -*----------------------------------*\
| =========                 |                                                 |
| \\      /  F ield         | OpenFOAM: The Open Source CFD Toolbox           |
|  \\    /   O peration     | Version:  5.0                                   |
|   \\  /    A nd           | Web:      www.OpenFOAM.org                      |
|    \\/     M anipulation  |                                                 |
\*---------------------------------------------------------------------------*/
FoamFile
{
    version     2.0;
    format      ascii;
    class       volScalarField;
    location    "60";
    object      FFR;
}
// * * * * * * * * * * * * * * * * * * * * * * * * * * * * * * * * * * * * * //

dimensions      [0 0 0 0 0 0 0];

internalField   nonuniform List<scalar> 
36178
(
0.969318
0.969276
0.969295
0.969337
0.969302
0.96922
0.969109
0.968954
0.968895
0.969075
0.969098
0.96912
0.969205
0.969269
0.969231
0.969248
0.969318
0.969314
0.969346
0.969334
0.969345
0.969348
0.969388
0.969379
0.969381
0.969374
0.969265
0.969157
0.968962
0.96875
0.968528
0.968361
0.96854
0.96879
0.96867
0.968798
0.969055
0.969147
0.969172
0.969199
0.969171
0.969234
0.96929
0.969336
0.969369
0.969383
0.969384
0.969382
0.969374
0.969373
0.969379
0.969373
0.969388
0.969377
0.969394
0.969396
0.969394
0.969402
0.969398
0.969408
0.969387
0.969386
0.969384
0.969352
0.969176
0.969065
0.968699
0.968425
0.968128
0.967879
0.967783
0.968251
0.968218
0.968666
0.968824
0.969057
0.969132
0.969239
0.969246
0.969261
0.969279
0.969323
0.969319
0.969339
0.969301
0.969292
0.969323
0.969364
0.969389
0.969394
0.969391
0.969375
0.969372
0.96939
0.969372
0.969397
0.969401
0.969402
0.969385
0.969351
0.969371
0.969376
0.969377
0.969413
0.969415
0.969415
0.969401
0.96938
0.969348
0.969398
0.969388
0.969419
0.969435
0.969447
0.96941
0.969392
0.969381
0.969377
0.969404
0.969384
0.96938
0.96938
0.969375
0.969373
0.969373
0.969376
0.96938
0.969385
0.969389
0.969392
0.969392
0.969396
0.969398
0.969404
0.969393
0.969394
0.969393
0.969393
0.969389
0.969387
0.969384
0.969386
0.969392
0.969392
0.969393
0.969396
0.969397
0.969397
0.969398
0.969398
0.969398
0.9694
0.969398
0.969399
0.969397
0.969397
0.969396
0.969396
0.969394
0.969391
0.969391
0.969394
0.969396
0.969398
0.969398
0.969399
0.969398
0.969399
0.969399
0.969399
0.969399
0.969399
0.969399
0.969399
0.969399
0.969399
0.969399
0.969399
0.969399
0.969399
0.969399
0.969399
0.969399
0.969399
0.969399
0.969399
0.969399
0.969399
0.969399
0.969399
0.969399
0.969399
0.969399
0.969399
0.969399
0.969399
0.969399
0.969401
0.969399
0.969401
0.969401
0.969402
0.9694
0.969398
0.969397
0.969397
0.969398
0.969398
0.969399
0.969399
0.969399
0.969399
0.969399
0.969399
0.969399
0.969399
0.969398
0.969399
0.969399
0.969399
0.969399
0.969399
0.969399
0.969399
0.969399
0.969399
0.969399
0.969399
0.969399
0.969399
0.969399
0.969399
0.969399
0.969399
0.969399
0.969399
0.969399
0.969399
0.969399
0.969399
0.969399
0.969399
0.969399
0.969401
0.9694
0.9694
0.969413
0.969416
0.969384
0.969322
0.9691
0.969085
0.968637
0.968255
0.967802
0.967374
0.966952
0.966336
0.96614
0.966456
0.966289
0.967664
0.96758
0.968297
0.968693
0.968834
0.96906
0.969143
0.969245
0.969259
0.969327
0.969353
0.969352
0.969352
0.969367
0.969351
0.969323
0.969325
0.969356
0.969382
0.969408
0.969417
0.969404
0.969393
0.969385
0.969371
0.969376
0.969378
0.969381
0.969378
0.969386
0.969391
0.969392
0.969396
0.969397
0.969398
0.969399
0.969399
0.969399
0.969399
0.969399
0.969399
0.969399
0.969399
0.969399
0.969399
0.969399
0.969399
0.969399
0.969399
0.969399
0.969399
0.969399
0.969399
0.969399
0.969399
0.969399
0.969399
0.9694
0.9694
0.9694
0.969418
0.969404
0.969233
0.968806
0.967975
0.968049
0.966987
0.966442
0.966038
0.965646
0.96472
0.964366
0.964128
0.965978
0.965981
0.966273
0.966532
0.967814
0.968486
0.968786
0.968962
0.969098
0.969183
0.969258
0.969267
0.969323
0.969345
0.969402
0.969383
0.969405
0.969435
0.969403
0.969429
0.969374
0.9694
0.969378
0.969406
0.969437
0.969442
0.969438
0.969446
0.969423
0.969403
0.969407
0.969391
0.969378
0.969373
0.969371
0.969369
0.969384
0.969368
0.969379
0.969383
0.969381
0.969389
0.969376
0.969392
0.969396
0.969399
0.969384
0.969397
0.969396
0.969398
0.969398
0.969397
0.969397
0.969396
0.969398
0.969399
0.969401
0.969403
0.969395
0.969302
0.969133
0.968372
0.968164
0.967229
0.964922
0.964302
0.962809
0.962412
0.962399
0.962285
0.961968
0.961641
0.96178
0.964198
0.964356
0.964469
0.964759
0.966854
0.968112
0.968571
0.968867
0.969038
0.969146
0.969214
0.969261
0.969298
0.969317
0.969354
0.96939
0.96937
0.969423
0.969391
0.969413
0.969449
0.96945
0.969438
0.969449
0.969483
0.969506
0.969512
0.969501
0.96947
0.969546
0.9695
0.969559
0.969554
0.969535
0.969494
0.96948
0.969452
0.969478
0.969489
0.969489
0.969549
0.969521
0.969498
0.96948
0.969469
0.96943
0.969456
0.969433
0.969463
0.969483
0.969456
0.969457
0.96949
0.96946
0.969541
0.969453
0.969425
0.969498
0.969421
0.969451
0.969434
0.969484
0.969449
0.969478
0.969492
0.969486
0.969458
0.969439
0.969423
0.969448
0.969456
0.969455
0.969468
0.969482
0.969453
0.969442
0.969419
0.969395
0.969391
0.969387
0.969371
0.969368
0.969363
0.969383
0.969361
0.969368
0.969376
0.969373
0.96937
0.969357
0.969374
0.969349
0.969356
0.969371
0.96936
0.969325
0.969336
0.969355
0.969366
0.969373
0.969362
0.969308
0.969344
0.969363
0.969369
0.969381
0.969363
0.969289
0.96936
0.969376
0.969392
0.969372
0.969316
0.969113
0.969321
0.969377
0.969405
0.969353
0.969357
0.969395
0.9694
0.969399
0.969397
0.969394
0.969394
0.969391
0.969385
0.969383
0.969386
0.969374
0.96939
0.969399
0.969398
0.969395
0.969394
0.969395
0.969397
0.969398
0.969399
0.969399
0.969399
0.969399
0.969399
0.969399
0.969399
0.969399
0.9694
0.969401
0.9694
0.969403
0.969407
0.969404
0.969402
0.969399
0.969399
0.969399
0.969399
0.9694
0.9694
0.9694
0.969399
0.9694
0.969399
0.969399
0.969399
0.969399
0.969399
0.969399
0.969399
0.969399
0.969399
0.969399
0.969399
0.969399
0.969399
0.969399
0.969399
0.969399
0.969399
0.969399
0.969399
0.969399
0.969399
0.969399
0.969399
0.969399
0.969399
0.969399
0.969399
0.969399
0.969399
0.969399
0.969399
0.969399
0.969399
0.969399
0.969399
0.969399
0.969399
0.969399
0.969399
0.969399
0.969399
0.969399
0.969399
0.969399
0.969399
0.969399
0.969399
0.969399
0.969399
0.969399
0.969399
0.969399
0.969399
0.969399
0.969399
0.969399
0.969399
0.969399
0.969399
0.969399
0.969399
0.969398
0.969396
0.969398
0.969398
0.969399
0.969398
0.969399
0.969399
0.969399
0.969399
0.969399
0.969398
0.9694
0.969401
0.969401
0.9694
0.969399
0.969399
0.9694
0.969399
0.969399
0.969399
0.969399
0.969399
0.9694
0.9694
0.969399
0.969398
0.969397
0.969395
0.969395
0.969396
0.96939
0.969391
0.96939
0.969392
0.969388
0.969387
0.969382
0.969384
0.969379
0.969383
0.969375
0.969376
0.969359
0.969374
0.969378
0.969362
0.969355
0.969371
0.969367
0.969362
0.969342
0.969358
0.969349
0.969323
0.969322
0.969346
0.969354
0.969357
0.969366
0.969355
0.969343
0.969339
0.969319
0.969333
0.969327
0.969301
0.969299
0.969328
0.969341
0.969341
0.969352
0.969355
0.969349
0.969339
0.969364
0.969325
0.969302
0.969286
0.969319
0.969295
0.969285
0.969279
0.969281
0.969279
0.969282
0.96928
0.969293
0.969289
0.969268
0.969308
0.969356
0.969402
0.969425
0.969399
0.969418
0.969441
0.96946
0.9695
0.969513
0.969477
0.969483
0.96943
0.969496
0.969434
0.969497
0.969413
0.969407
0.969402
0.969415
0.969406
0.9695
0.969427
0.96942
0.969431
0.969404
0.969413
0.969423
0.969394
0.969375
0.96937
0.969368
0.969379
0.96936
0.969363
0.969362
0.969341
0.969319
0.969337
0.969302
0.969354
0.969285
0.969268
0.969343
0.96931
0.969286
0.969261
0.969236
0.969246
0.969253
0.969258
0.969272
0.969268
0.96934
0.969392
0.969424
0.969449
0.969296
0.96932
0.969365
0.969386
0.969336
0.969361
0.969397
0.969419
0.969496
0.969441
0.969452
0.969431
0.969392
0.96939
0.969367
0.969378
0.969382
0.969365
0.969344
0.969315
0.969318
0.96931
0.969333
0.969329
0.969321
0.96932
0.969294
0.969262
0.969265
0.969282
0.969319
0.96931
0.969299
0.969306
0.969293
0.969307
0.969311
0.969326
0.969336
0.969355
0.969323
0.969362
0.969395
0.96935
0.969328
0.969346
0.969379
0.969417
0.969438
0.969448
0.969431
0.969387
0.969346
0.969358
0.969348
0.969322
0.969402
0.969305
0.969285
0.969394
0.969362
0.969327
0.969288
0.969271
0.969307
0.969361
0.969388
0.969489
0.969528
0.96954
0.969496
0.969381
0.969445
0.969381
0.969399
0.969439
0.969418
0.969477
0.969515
0.969463
0.969465
0.969468
0.969444
0.969443
0.969404
0.96941
0.969453
0.969424
0.969432
0.969505
0.969432
0.969449
0.969411
0.9694
0.969377
0.969421
0.969406
0.969472
0.969538
0.969634
0.969648
0.969747
0.969747
0.96976
0.969633
0.969608
0.969658
0.969493
0.969519
0.969432
0.969472
0.969461
0.969484
0.969478
0.96945
0.969396
0.969331
0.969323
0.969288
0.969267
0.969238
0.969228
0.969232
0.969249
0.969239
0.969261
0.969269
0.969273
0.969293
0.969265
0.969247
0.969226
0.969215
0.969225
0.969237
0.969289
0.969334
0.969364
0.969404
0.969421
0.969497
0.969484
0.969453
0.969503
0.969537
0.969566
0.969484
0.969583
0.969582
0.969574
0.969577
0.969589
0.969552
0.969631
0.969634
0.969728
0.969803
0.969893
0.969948
0.969861
0.969942
0.969924
0.969967
0.970113
0.970093
0.970112
0.969777
0.969795
0.96963
0.969669
0.969635
0.969601
0.969531
0.969575
0.969543
0.969529
0.969546
0.969533
0.969465
0.969534
0.969566
0.969673
0.969642
0.969722
0.969941
0.969804
0.969824
0.96971
0.969613
0.96957
0.969678
0.969642
0.969574
0.969545
0.969524
0.969558
0.969507
0.969487
0.969411
0.969407
0.969391
0.969362
0.969364
0.969394
0.969345
0.969406
0.969461
0.969509
0.969555
0.969673
0.969589
0.969695
0.969712
0.969694
0.969707
0.969796
0.969796
0.969824
0.969903
0.96998
0.970086
0.970134
0.970264
0.970268
0.970223
0.970281
0.970283
0.970304
0.970317
0.970097
0.970122
0.970098
0.969986
0.969786
0.969792
0.969727
0.969664
0.969679
0.969609
0.969585
0.969582
0.969507
0.969535
0.969531
0.969473
0.969462
0.969425
0.969421
0.96937
0.96933
0.969382
0.969383
0.969407
0.969471
0.969573
0.96969
0.969697
0.969949
0.969921
0.969948
0.97002
0.970055
0.970145
0.970254
0.970305
0.970435
0.9704
0.970512
0.970488
0.970533
0.970553
0.970537
0.970461
0.970317
0.970274
0.970278
0.970196
0.969974
0.969896
0.969919
0.969824
0.969652
0.969628
0.96975
0.96994
0.970159
0.970079
0.969939
0.969956
0.969958
0.96994
0.970209
0.970209
0.970208
0.970234
0.970304
0.970306
0.970402
0.970441
0.970527
0.970587
0.970615
0.970595
0.970636
0.970633
0.970676
0.970723
0.970526
0.97056
0.970455
0.970481
0.970554
0.970527
0.970474
0.970516
0.970727
0.970707
0.970717
0.970741
0.970742
0.970676
0.970594
0.970431
0.970189
0.970073
0.970317
0.970527
0.970369
0.970262
0.970226
0.970391
0.970358
0.970362
0.970381
0.970402
0.970429
0.970486
0.970554
0.970557
0.970636
0.970712
0.970756
0.970779
0.970799
0.970811
0.970832
0.970831
0.970794
0.970806
0.970768
0.970755
0.970627
0.970614
0.970456
0.97038
0.970293
0.970129
0.970271
0.970499
0.970627
0.970742
0.970752
0.970719
0.970693
0.970689
0.970671
0.970645
0.970662
0.970718
0.970714
0.970775
0.970792
0.970878
0.970847
0.970926
0.970952
0.970977
0.971002
0.970995
0.97096
0.970961
0.970947
0.970929
0.970783
0.970728
0.970867
0.970836
0.970891
0.971021
0.97095
0.97087
0.970847
0.970775
0.970722
0.970698
0.9707
0.970707
0.97073
0.970773
0.97085
0.970899
0.971024
0.971075
0.971136
0.970904
0.970933
0.97096
0.971145
0.971117
0.97108
0.971083
0.971015
0.971122
0.971114
0.971028
0.971045
0.970903
0.970846
0.97082
0.970818
0.97085
0.970916
0.970865
0.970826
0.970802
0.970834
0.970823
0.970887
0.970972
0.971009
0.971121
0.971121
0.971157
0.971188
0.971149
0.971125
0.971132
0.971087
0.971088
0.971031
0.971132
0.971251
0.971253
0.971226
0.971141
0.971107
0.971086
0.971065
0.971019
0.970992
0.971063
0.971047
0.971154
0.971245
0.971311
0.971241
0.971318
0.971296
0.971325
0.971358
0.971414
0.971406
0.971406
0.971225
0.971234
0.97125
0.971448
0.971607
0.97159
0.971511
0.971335
0.971191
0.971186
0.971331
0.971511
0.971353
0.971422
0.971336
0.971265
0.971257
0.971241
0.971237
0.971237
0.97121
0.971272
0.971339
0.971422
0.971546
0.971609
0.971757
0.971806
0.971496
0.971402
0.971427
0.971469
0.971509
0.971553
0.971422
0.971458
0.971499
0.971236
0.971239
0.971271
0.97117
0.971099
0.971034
0.971138
0.971236
0.971298
0.97161
0.971625
0.971631
0.971617
0.97162
0.971658
0.971649
0.971733
0.971767
0.971884
0.971897
0.971893
0.971831
0.971805
0.971571
0.971552
0.971518
0.971691
0.971789
0.971796
0.971742
0.971684
0.971688
0.971602
0.971467
0.971753
0.971762
0.971755
0.971761
0.971768
0.971776
0.971783
0.971819
0.971871
0.971869
0.971966
0.971936
0.971986
0.971935
0.972034
0.972027
0.971872
0.971872
0.971757
0.971735
0.971632
0.971599
0.971747
0.971686
0.971838
0.971827
0.971821
0.971933
0.97187
0.971897
0.97187
0.971874
0.971886
0.971918
0.972021
0.972087
0.972077
0.972103
0.972117
0.972085
0.972148
0.972123
0.972171
0.9722
0.971971
0.971997
0.972042
0.972012
0.971988
0.971854
0.971867
0.971962
0.971952
0.971893
0.972025
0.971951
0.972184
0.972133
0.972187
0.972221
0.972218
0.972162
0.972163
0.972212
0.972212
0.972237
0.972273
0.972306
0.972306
0.972313
0.972193
0.972158
0.972115
0.972082
0.972298
0.972258
0.972518
0.972542
0.97246
0.972332
0.972088
0.971958
0.972035
0.972268
0.972502
0.973006
0.973003
0.972993
0.972914
0.972857
0.972765
0.972635
0.972613
0.972564
0.972462
0.97254
0.97267
0.972751
0.972336
0.972367
0.972403
0.97251
0.972594
0.972518
0.9723
0.97229
0.972306
0.972557
0.972576
0.973061
0.973616
0.973533
0.973512
0.973425
0.973428
0.973371
0.973335
0.973193
0.973201
0.973172
0.97327
0.973448
0.973496
0.973721
0.973817
0.973114
0.972837
0.972963
0.973015
0.973134
0.973185
0.972916
0.973033
0.973202
0.973117
0.973125
0.972587
0.972647
0.973094
0.973054
0.973595
0.973532
0.974
0.973999
0.973921
0.973803
0.973855
0.973827
0.973805
0.973912
0.973899
0.974028
0.973985
0.974199
0.974481
0.974538
0.97407
0.974505
0.97437
0.974384
0.974424
0.974464
0.974483
0.973851
0.973538
0.973963
0.974516
0.974885
0.97468
0.974547
0.974497
0.974488
0.974703
0.974786
0.974758
0.974713
0.975147
0.975172
0.975092
0.974958
0.974835
0.974275
0.973702
0.973686
0.974276
0.974129
0.974152
0.974671
0.974485
0.974312
0.974291
0.974255
0.974251
0.974368
0.974494
0.974608
0.974813
0.975003
0.975196
0.9752
0.974974
0.975212
0.975134
0.975165
0.975158
0.975429
0.975432
0.975447
0.975535
0.975575
0.975549
0.975546
0.975586
0.975445
0.975552
0.975466
0.97546
0.975327
0.975262
0.975171
0.975094
0.974926
0.974624
0.974387
0.97465
0.975161
0.975481
0.975487
0.975442
0.975457
0.975471
0.975415
0.975373
0.975432
0.97552
0.975588
0.975642
0.975717
0.975723
0.975782
0.97577
0.97578
0.975785
0.975797
0.975717
0.975745
0.975681
0.975761
0.975731
0.975659
0.9756
0.975563
0.975642
0.975778
0.975713
0.975693
0.97563
0.975598
0.975605
0.975637
0.975703
0.975677
0.97574
0.975753
0.975815
0.975888
0.975886
0.975876
0.975904
0.975891
0.975901
0.97591
0.975772
0.975797
0.975702
0.97571
0.975772
0.975665
0.975756
0.975742
0.975688
0.975632
0.97579
0.97579
0.975895
0.975849
0.975858
0.975798
0.975712
0.975704
0.975761
0.975779
0.975689
0.975535
0.975583
0.975709
0.975828
0.975836
0.975878
0.975944
0.975914
0.975873
0.975865
0.975878
0.975881
0.97588
0.975839
0.97593
0.975902
0.975995
0.976029
0.976126
0.976192
0.976213
0.976169
0.976002
0.975949
0.975992
0.975916
0.975919
0.975829
0.975782
0.975772
0.97579
0.975734
0.975731
0.975744
0.975755
0.975794
0.97577
0.975768
0.975748
0.97576
0.975778
0.97581
0.975843
0.975868
0.975875
0.975988
0.975996
0.976001
0.976004
0.976008
0.976029
0.976107
0.97618
0.976288
0.976384
0.976474
0.976484
0.976397
0.976291
0.976318
0.976173
0.976122
0.976125
0.976032
0.976033
0.97603
0.97603
0.976046
0.976025
0.976045
0.975928
0.975897
0.97589
0.975913
0.975936
0.976053
0.976216
0.976131
0.976125
0.976112
0.976113
0.976162
0.976153
0.976157
0.976286
0.976272
0.976227
0.976134
0.976012
0.975957
0.975877
0.975846
0.975881
0.975855
0.975915
0.975976
0.975971
0.976019
0.976018
0.975957
0.975947
0.97592
0.975892
0.975918
0.975926
0.976005
0.976029
0.97621
0.97614
0.976113
0.97611
0.976128
0.976151
0.976269
0.976303
0.976419
0.976449
0.976571
0.976653
0.976749
0.976764
0.976661
0.976541
0.976541
0.976494
0.976383
0.97639
0.976385
0.976377
0.976378
0.976475
0.976523
0.976418
0.976391
0.976257
0.976191
0.976098
0.976242
0.976485
0.976411
0.976412
0.97642
0.976423
0.976436
0.976496
0.976598
0.97666
0.976768
0.976817
0.976896
0.97698
0.977073
0.977066
0.977024
0.976919
0.976824
0.976847
0.976769
0.976758
0.976541
0.976536
0.97638
0.976379
0.976274
0.976248
0.976255
0.976138
0.976064
0.975963
0.975943
0.975997
0.975931
0.975968
0.97607
0.976237
0.976435
0.97654
0.976734
0.976693
0.976651
0.976631
0.976638
0.976677
0.976694
0.97678
0.976853
0.976893
0.976998
0.977017
0.977068
0.977108
0.977105
0.97707
0.977017
0.976973
0.977021
0.97694
0.976918
0.976897
0.976884
0.976876
0.976877
0.976886
0.976735
0.976555
0.976453
0.976362
0.976568
0.976746
0.976904
0.976876
0.976882
0.976847
0.976712
0.976658
0.97645
0.976446
0.976677
0.976832
0.976837
0.976844
0.976858
0.976924
0.976942
0.976979
0.977063
0.977076
0.977127
0.977144
0.977159
0.977173
0.977189
0.97718
0.977181
0.977158
0.977116
0.977146
0.977143
0.977148
0.97714
0.977051
0.977007
0.977006
0.97684
0.976832
0.976759
0.976747
0.976523
0.976524
0.976408
0.976386
0.97627
0.976166
0.976355
0.976558
0.976744
0.976882
0.976923
0.977028
0.977004
0.976979
0.976994
0.977006
0.977012
0.977057
0.977068
0.97713
0.977151
0.977177
0.977206
0.977201
0.977215
0.977221
0.977215
0.977218
0.977205
0.977197
0.97721
0.977172
0.97715
0.977126
0.977106
0.977093
0.977087
0.977085
0.977125
0.977112
0.977095
0.977024
0.976947
0.976824
0.976674
0.976612
0.976694
0.976871
0.976799
0.976822
0.976977
0.976996
0.977031
0.977023
0.976998
0.976926
0.976919
0.977005
0.97707
0.977118
0.977139
0.977177
0.977153
0.977143
0.977113
0.977058
0.976997
0.976948
0.976824
0.976646
0.976644
0.976812
0.976942
0.977029
0.977028
0.977095
0.977085
0.977069
0.977066
0.977071
0.977083
0.977102
0.97712
0.977162
0.977178
0.977188
0.977203
0.977223
0.977225
0.977239
0.977244
0.97725
0.977247
0.977248
0.977217
0.977209
0.97721
0.977198
0.977203
0.977173
0.977178
0.977169
0.977174
0.977129
0.977119
0.977134
0.97704
0.977039
0.977024
0.97701
0.976914
0.976923
0.976824
0.976733
0.97656
0.976456
0.976473
0.976368
0.976242
0.976119
0.97616
0.976176
0.97617
0.976129
0.976129
0.976
0.976001
0.976103
0.976112
0.976261
0.976382
0.976569
0.976564
0.976744
0.976895
0.976995
0.97707
0.977074
0.977137
0.977147
0.97716
0.977174
0.977183
0.977201
0.977208
0.97722
0.977236
0.977237
0.97725
0.977258
0.977266
0.977274
0.977272
0.977272
0.97725
0.977243
0.977243
0.97725
0.977235
0.977225
0.977218
0.977219
0.977216
0.977221
0.977189
0.977187
0.977162
0.977163
0.977168
0.977168
0.977158
0.977191
0.97724
0.977236
0.97724
0.977247
0.977252
0.977253
0.977247
0.977243
0.977238
0.977241
0.977264
0.97727
0.977249
0.977221
0.977214
0.977188
0.977165
0.97717
0.977149
0.977149
0.97713
0.977127
0.97711
0.977128
0.977078
0.977066
0.977082
0.977077
0.977039
0.977057
0.977114
0.977149
0.977138
0.977181
0.977192
0.977226
0.977208
0.977187
0.977175
0.977147
0.977155
0.977135
0.977091
0.977087
0.977095
0.977137
0.977175
0.977174
0.977177
0.977179
0.977188
0.977196
0.977206
0.977219
0.977219
0.977227
0.977242
0.977244
0.977256
0.977266
0.977278
0.977288
0.977298
0.977297
0.9773
0.977283
0.977279
0.977282
0.977285
0.977277
0.977277
0.977274
0.977271
0.977269
0.977264
0.977305
0.977306
0.977308
0.977311
0.977313
0.977314
0.977309
0.97731
0.977306
0.977302
0.9773
0.977299
0.977298
0.977304
0.977285
0.977287
0.977292
0.977277
0.977275
0.977252
0.977216
0.977203
0.977172
0.977176
0.977148
0.97712
0.977139
0.977169
0.977152
0.977184
0.977212
0.977221
0.977208
0.977192
0.97719
0.977189
0.977237
0.977217
0.977222
0.977219
0.977221
0.977228
0.977235
0.97724
0.977233
0.977249
0.97725
0.977264
0.977273
0.977286
0.977298
0.977309
0.977317
0.97732
0.977322
0.977323
0.977321
0.977321
0.977334
0.977326
0.977342
0.977338
0.977335
0.977331
0.977328
0.977328
0.977315
0.977317
0.977319
0.977308
0.977307
0.977307
0.977297
0.977282
0.977268
0.977241
0.977229
0.97719
0.977193
0.977221
0.977203
0.977233
0.977238
0.977259
0.977257
0.977237
0.97722
0.977259
0.977253
0.977251
0.977236
0.97721
0.977212
0.977191
0.977189
0.97721
0.977236
0.977254
0.977254
0.977285
0.977268
0.977264
0.977264
0.977262
0.977258
0.977254
0.977255
0.977274
0.97727
0.977286
0.97729
0.977306
0.977321
0.977334
0.977342
0.977349
0.977355
0.977359
0.977332
0.977342
0.977338
0.977352
0.977347
0.977343
0.97734
0.977338
0.977336
0.977333
0.977335
0.977323
0.977327
0.977316
0.977318
0.977311
0.977302
0.977289
0.977277
0.977254
0.97725
0.977273
0.977259
0.977276
0.977282
0.977276
0.977279
0.977302
0.977289
0.9773
0.977294
0.977293
0.977287
0.977281
0.977278
0.97728
0.977269
0.977292
0.977294
0.977309
0.977326
0.977341
0.977354
0.977365
0.977377
0.977375
0.977373
0.977367
0.977361
0.977364
0.97736
0.977363
0.977359
0.977357
0.977345
0.977355
0.977348
0.97735
0.977348
0.977346
0.977351
0.977324
0.977323
0.977323
0.977324
0.977329
0.977346
0.977342
0.977347
0.977349
0.977343
0.977338
0.977344
0.97734
0.977342
0.977332
0.97734
0.977339
0.977332
0.977334
0.977331
0.977326
0.977321
0.977314
0.977305
0.977294
0.977292
0.977305
0.977313
0.977318
0.977309
0.977318
0.977339
0.977344
0.977334
0.977336
0.977319
0.977302
0.977304
0.977297
0.977318
0.977335
0.977358
0.977399
0.977437
0.977454
0.977565
0.977647
0.977695
0.977705
0.977703
0.977664
0.977587
0.977532
0.977502
0.977458
0.977431
0.977415
0.977401
0.977388
0.977376
0.97739
0.97738
0.977388
0.977387
0.977392
0.977394
0.977397
0.977395
0.977392
0.977405
0.977375
0.977354
0.977355
0.977295
0.977374
0.977376
0.977349
0.977297
0.97729
0.977291
0.977303
0.977315
0.977312
0.97729
0.97729
0.977319
0.977348
0.97744
0.977502
0.977475
0.977521
0.977503
0.977407
0.977559
0.977442
0.977368
0.977253
0.97708
0.977491
0.977484
0.977543
0.977498
0.977481
0.977449
0.977428
0.977409
0.977394
0.977376
0.977363
0.977343
0.977368
0.977366
0.977365
0.977377
0.977374
0.977374
0.977364
0.977357
0.977354
0.97737
0.977365
0.977364
0.977357
0.97735
0.977362
0.977353
0.977348
0.977356
0.977353
0.977346
0.977338
0.97734
0.977348
0.977341
0.97734
0.977338
0.977339
0.977335
0.977331
0.977326
0.977343
0.977348
0.977371
0.977386
0.9774
0.977431
0.977436
0.977449
0.977426
0.977321
0.977335
0.976878
0.976235
0.97615
0.975972
0.975909
0.975883
0.975917
0.976084
0.976205
0.976327
0.9769
0.977243
0.977402
0.977447
0.977447
0.977445
0.977438
0.977424
0.977408
0.977395
0.977417
0.977434
0.977447
0.977462
0.977465
0.977451
0.977453
0.977446
0.977372
0.977367
0.977375
0.977369
0.977366
0.977358
0.977365
0.977362
0.977354
0.977344
0.977342
0.97736
0.977373
0.977391
0.977371
0.977387
0.97739
0.977409
0.977392
0.977402
0.977375
0.977393
0.977336
0.977185
0.976856
0.976376
0.975904
0.975699
0.975581
0.975445
0.97544
0.975473
0.975539
0.975597
0.975774
0.975874
0.975637
0.97561
0.975537
0.975497
0.975468
0.975715
0.975475
0.975473
0.975466
0.975395
0.975392
0.975393
0.975424
0.975435
0.975408
0.975378
0.975364
0.975361
0.975338
0.975369
0.975382
0.975388
0.975389
0.975393
0.975377
0.975561
0.975578
0.975718
0.975936
0.976107
0.976493
0.976907
0.977118
0.977214
0.977317
0.977369
0.977401
0.977413
0.977405
0.977392
0.977377
0.977358
0.977384
0.977391
0.977373
0.977348
0.977368
0.977365
0.977354
0.977345
0.977335
0.977328
0.977324
0.97732
0.977318
0.977309
0.977309
0.977325
0.977314
0.977336
0.977325
0.977337
0.977339
0.977343
0.97735
0.97736
0.977357
0.977341
0.977333
0.977326
0.977322
0.977319
0.97731
0.977307
0.977322
0.977326
0.977332
0.977335
0.977337
0.977342
0.977348
0.977346
0.977314
0.977308
0.977295
0.977288
0.977287
0.977288
0.97729
0.977298
0.977299
0.977304
0.977288
0.977299
0.977311
0.977322
0.977327
0.977339
0.97733
0.977345
0.977338
0.977349
0.977329
0.977336
0.977338
0.977345
0.97734
0.977348
0.977356
0.977349
0.977342
0.97734
0.977344
0.977341
0.97734
0.977338
0.977347
0.977342
0.977344
0.97735
0.977354
0.977354
0.977349
0.977337
0.977346
0.97737
0.977355
0.977374
0.977379
0.977387
0.977364
0.977372
0.977341
0.977333
0.977255
0.977345
0.97739
0.977466
0.977415
0.977304
0.977163
0.97713
0.977167
0.976896
0.97653
0.976112
0.975878
0.975706
0.975591
0.975443
0.975367
0.975316
0.975366
0.975212
0.975256
0.975281
0.975296
0.975317
0.975295
0.975276
0.97527
0.975248
0.97525
0.975221
0.975215
0.975093
0.975131
0.975179
0.975217
0.975237
0.975248
0.975217
0.975221
0.975361
0.97532
0.975371
0.975474
0.975551
0.975643
0.975842
0.975985
0.976274
0.976591
0.976943
0.977147
0.977218
0.977296
0.977334
0.977375
0.977388
0.977381
0.977367
0.977347
0.977333
0.977302
0.977334
0.97736
0.977326
0.977332
0.977294
0.977311
0.977265
0.977321
0.977341
0.977359
0.977368
0.977356
0.977337
0.977293
0.977277
0.977291
0.977254
0.977269
0.977257
0.97728
0.977295
0.97731
0.977322
0.977332
0.977339
0.977337
0.977347
0.977331
0.977339
0.977344
0.977345
0.977346
0.977342
0.977337
0.977317
0.977292
0.977313
0.977337
0.977325
0.977335
0.977355
0.977338
0.977318
0.977287
0.977282
0.977308
0.977299
0.97732
0.977303
0.977325
0.977338
0.977349
0.977317
0.977304
0.977249
0.977124
0.977045
0.977106
0.976688
0.976485
0.976356
0.976203
0.975986
0.975777
0.975688
0.975558
0.975367
0.975265
0.975238
0.975224
0.975091
0.974905
0.974906
0.974955
0.975005
0.975093
0.975144
0.97515
0.975115
0.975097
0.9751
0.97523
0.975237
0.975259
0.975409
0.975493
0.975501
0.975763
0.975752
0.97583
0.976063
0.976322
0.97656
0.976705
0.977011
0.97718
0.97722
0.977288
0.977321
0.977355
0.977365
0.977354
0.977339
0.977319
0.9773
0.977265
0.977251
0.97723
0.977178
0.977227
0.977268
0.977302
0.977299
0.977291
0.97729
0.977292
0.977306
0.977326
0.977335
0.977319
0.977295
0.97727
0.977281
0.97726
0.977255
0.977268
0.97728
0.977315
0.97729
0.977238
0.977226
0.977223
0.977265
0.977226
0.977251
0.977247
0.977271
0.977274
0.977271
0.977288
0.977305
0.977279
0.977247
0.977226
0.97718
0.97715
0.97715
0.977184
0.977199
0.977216
0.977251
0.977282
0.977273
0.977276
0.977277
0.977292
0.977311
0.977286
0.977309
0.977318
0.977348
0.977347
0.977322
0.977341
0.977328
0.977353
0.977341
0.97731
0.977303
0.977318
0.977291
0.977306
0.977286
0.97728
0.977249
0.97721
0.977233
0.977243
0.977242
0.977306
0.977238
0.976992
0.976434
0.975947
0.975755
0.975581
0.975369
0.975405
0.975717
0.97558
0.975594
0.975603
0.975628
0.975613
0.975623
0.975866
0.97611
0.976165
0.97643
0.976493
0.976756
0.97699
0.977089
0.977195
0.977228
0.977276
0.977304
0.977322
0.977342
0.977345
0.97733
0.977312
0.97729
0.977269
0.977234
0.977209
0.977174
0.977119
0.977108
0.977034
0.977126
0.977194
0.977189
0.977168
0.97716
0.97712
0.977187
0.977271
0.977266
0.977228
0.977275
0.977285
0.977264
0.977269
0.977295
0.97733
0.977354
0.977345
0.977312
0.977262
0.977245
0.977287
0.977295
0.977376
0.977411
0.977414
0.977375
0.977319
0.977277
0.977286
0.977296
0.977295
0.977288
0.977308
0.97731
0.977288
0.977305
0.977315
0.977326
0.977341
0.977353
0.977357
0.977372
0.977377
0.977397
0.977418
0.977412
0.977387
0.977372
0.977363
0.977376
0.977391
0.977374
0.977366
0.977356
0.977351
0.977356
0.97736
0.977364
0.977359
0.977362
0.977338
0.977348
0.977337
0.977327
0.977298
0.977277
0.977301
0.977302
0.977279
0.977263
0.977248
0.977223
0.977225
0.977234
0.977248
0.977268
0.977267
0.977263
0.977258
0.977224
0.977191
0.977159
0.977128
0.977082
0.97703
0.977074
0.97704
0.976963
0.976941
0.97686
0.976961
0.977063
0.97705
0.977018
0.977011
0.977069
0.977151
0.977204
0.977199
0.977149
0.977104
0.977236
0.977244
0.977372
0.977388
0.977362
0.977288
0.977208
0.977155
0.977073
0.977126
0.977172
0.977204
0.977197
0.977222
0.977213
0.977171
0.977094
0.977038
0.976994
0.976899
0.976927
0.976971
0.977006
0.97701
0.977081
0.977062
0.977095
0.976924
0.976922
0.977043
0.977068
0.977153
0.977211
0.977177
0.977215
0.977233
0.977202
0.977221
0.977235
0.97725
0.977271
0.977306
0.977281
0.97724
0.977197
0.977192
0.977126
0.977173
0.977176
0.977153
0.977118
0.977107
0.977086
0.977051
0.977056
0.977085
0.97708
0.977084
0.977098
0.977124
0.977119
0.977115
0.977103
0.977058
0.977015
0.976972
0.976926
0.976855
0.976909
0.976855
0.976798
0.976714
0.976825
0.976885
0.976782
0.976806
0.976708
0.976862
0.976907
0.976948
0.97698
0.976859
0.976874
0.976887
0.97673
0.97675
0.976904
0.976795
0.97685
0.976953
0.976992
0.977089
0.97711
0.977178
0.977184
0.977209
0.97723
0.977171
0.977168
0.977108
0.977036
0.977077
0.977066
0.97711
0.977136
0.977102
0.977039
0.977005
0.976957
0.976943
0.977018
0.977006
0.977047
0.977075
0.977026
0.976955
0.97691
0.976858
0.976839
0.976835
0.976881
0.976964
0.97695
0.976894
0.976887
0.976896
0.976912
0.976905
0.976893
0.976877
0.976819
0.976763
0.9767
0.976599
0.976613
0.976621
0.976573
0.976461
0.976622
0.976673
0.976677
0.976586
0.976589
0.976737
0.976767
0.976782
0.976635
0.976662
0.976478
0.976553
0.976603
0.976651
0.97673
0.976801
0.976899
0.976959
0.977035
0.977072
0.97714
0.977141
0.977066
0.976994
0.977007
0.976925
0.976866
0.976789
0.976693
0.976684
0.976787
0.976711
0.976631
0.976637
0.976628
0.976651
0.976753
0.976796
0.976713
0.976533
0.976543
0.97642
0.976384
0.976363
0.976357
0.976329
0.976333
0.976267
0.976268
0.976306
0.976226
0.976148
0.976001
0.976183
0.976333
0.976266
0.97616
0.97636
0.976424
0.976408
0.976292
0.976497
0.976513
0.976612
0.976714
0.976731
0.976757
0.976839
0.976811
0.976856
0.976894
0.976949
0.976852
0.976862
0.976917
0.976904
0.976972
0.976938
0.976855
0.976806
0.976868
0.976935
0.976997
0.97706
0.977112
0.977163
0.977179
0.977223
0.977199
0.97726
0.977229
0.977214
0.977249
0.977206
0.977196
0.977234
0.977268
0.977268
0.977257
0.977229
0.977199
0.977177
0.977132
0.977133
0.977153
0.977098
0.977049
0.97702
0.977017
0.976942
0.976952
0.977024
0.977041
0.976972
0.977009
0.976949
0.977008
0.976962
0.976916
0.976859
0.976875
0.976811
0.97673
0.976698
0.976721
0.976772
0.976798
0.976803
0.976792