/*--------------------------------*- C++ -*----------------------------------*\
| =========                 |                                                 |
| \\      /  F ield         | OpenFOAM: The Open Source CFD Toolbox           |
|  \\    /   O peration     | Version:  5.0                                   |
|   \\  /    A nd           | Web:      www.OpenFOAM.org                      |
|    \\/     M anipulation  |                                                 |
\*---------------------------------------------------------------------------*/
FoamFile
{
    version     2.0;
    format      ascii;
    class       volScalarField;
    location    "60";
    object      p;
}
// * * * * * * * * * * * * * * * * * * * * * * * * * * * * * * * * * * * * * //

dimensions      [1 -1 -2 0 0 0 0];

internalField   nonuniform List<scalar> 
36178
(
7085.83
7085.52
7085.65
7085.96
7085.71
7085.11
7084.29
7083.16
7082.73
7084.05
7084.22
7084.37
7085
7085.47
7085.19
7085.31
7085.82
7085.79
7086.03
7085.94
7086.02
7086.04
7086.34
7086.27
7086.28
7086.23
7085.44
7084.65
7083.22
7081.67
7080.05
7078.82
7080.14
7081.96
7081.09
7082.02
7083.9
7084.58
7084.76
7084.96
7084.75
7085.21
7085.62
7085.96
7086.2
7086.3
7086.31
7086.29
7086.23
7086.22
7086.27
7086.23
7086.33
7086.25
7086.38
7086.4
7086.38
7086.44
7086.41
7086.48
7086.33
7086.32
7086.31
7086.07
7084.79
7083.97
7081.3
7079.3
7077.13
7075.3
7074.6
7078.03
7077.78
7081.06
7082.21
7083.92
7084.46
7085.25
7085.3
7085.41
7085.54
7085.86
7085.83
7085.97
7085.7
7085.64
7085.86
7086.16
7086.34
7086.38
7086.35
7086.24
7086.22
7086.35
7086.22
7086.4
7086.43
7086.43
7086.32
7086.06
7086.21
7086.25
7086.26
7086.52
7086.54
7086.53
7086.43
7086.27
7086.04
7086.41
7086.34
7086.56
7086.68
7086.77
7086.49
7086.36
7086.29
7086.26
7086.45
7086.31
7086.27
7086.27
7086.24
7086.23
7086.23
7086.24
7086.27
7086.31
7086.34
7086.37
7086.36
7086.39
7086.41
7086.45
7086.37
7086.38
7086.37
7086.37
7086.34
7086.33
7086.3
7086.32
7086.37
7086.36
7086.38
7086.4
7086.4
7086.4
7086.41
7086.41
7086.41
7086.42
7086.41
7086.41
7086.4
7086.4
7086.39
7086.4
7086.38
7086.36
7086.36
7086.38
7086.39
7086.41
7086.41
7086.41
7086.41
7086.41
7086.41
7086.41
7086.41
7086.41
7086.41
7086.41
7086.41
7086.41
7086.41
7086.41
7086.41
7086.41
7086.41
7086.41
7086.41
7086.41
7086.41
7086.41
7086.41
7086.41
7086.41
7086.41
7086.41
7086.41
7086.41
7086.42
7086.42
7086.42
7086.42
7086.43
7086.42
7086.43
7086.43
7086.44
7086.42
7086.41
7086.4
7086.4
7086.41
7086.41
7086.41
7086.41
7086.41
7086.41
7086.41
7086.41
7086.41
7086.41
7086.41
7086.41
7086.41
7086.41
7086.41
7086.41
7086.41
7086.41
7086.41
7086.41
7086.41
7086.41
7086.41
7086.41
7086.41
7086.41
7086.41
7086.41
7086.41
7086.41
7086.41
7086.41
7086.41
7086.41
7086.42
7086.42
7086.42
7086.43
7086.42
7086.42
7086.52
7086.54
7086.3
7085.85
7084.23
7084.12
7080.84
7078.05
7074.74
7071.61
7068.53
7064.03
7062.59
7064.9
7063.68
7073.73
7073.12
7078.36
7081.25
7082.29
7083.93
7084.54
7085.29
7085.4
7085.89
7086.08
7086.08
7086.07
7086.18
7086.06
7085.86
7085.88
7086.1
7086.29
7086.48
7086.55
7086.45
7086.38
7086.32
7086.21
7086.25
7086.26
7086.29
7086.27
7086.32
7086.35
7086.36
7086.39
7086.4
7086.41
7086.41
7086.41
7086.42
7086.41
7086.41
7086.41
7086.41
7086.41
7086.41
7086.41
7086.41
7086.41
7086.41
7086.41
7086.41
7086.41
7086.41
7086.41
7086.41
7086.41
7086.41
7086.42
7086.42
7086.43
7086.42
7086.56
7086.45
7085.2
7082.08
7076.01
7076.55
7068.78
7064.8
7061.85
7058.98
7052.21
7049.62
7047.89
7061.41
7061.43
7063.57
7065.46
7074.83
7079.74
7081.93
7083.22
7084.21
7084.84
7085.39
7085.45
7085.86
7086.02
7086.44
7086.3
7086.46
7086.68
7086.44
7086.63
7086.23
7086.43
7086.26
7086.46
7086.7
7086.73
7086.7
7086.76
7086.59
7086.44
7086.48
7086.36
7086.26
7086.23
7086.21
7086.2
7086.31
7086.19
7086.27
7086.3
7086.28
7086.34
7086.25
7086.36
7086.39
7086.42
7086.31
7086.4
7086.4
7086.41
7086.41
7086.4
7086.4
7086.4
7086.41
7086.42
7086.43
7086.45
7086.38
7085.7
7084.47
7078.91
7077.39
7070.55
7053.69
7049.15
7038.24
7035.34
7035.24
7034.41
7032.09
7029.7
7030.72
7048.4
7049.55
7050.37
7052.5
7067.81
7077.01
7080.36
7082.52
7083.78
7084.57
7085.07
7085.41
7085.68
7085.82
7086.09
7086.35
7086.2
7086.59
7086.36
7086.51
7086.78
7086.79
7086.7
7086.78
7087.03
7087.2
7087.24
7087.16
7086.94
7087.49
7087.15
7087.59
7087.55
7087.41
7087.11
7087.01
7086.81
7087
7087.07
7087.07
7087.51
7087.31
7087.14
7087.01
7086.92
7086.65
7086.83
7086.66
7086.89
7087.03
7086.84
7086.84
7087.08
7086.86
7087.45
7086.81
7086.61
7087.14
7086.58
7086.8
7086.67
7087.04
7086.78
7086.99
7087.1
7087.05
7086.85
7086.71
7086.59
7086.77
7086.83
7086.83
7086.92
7087.03
7086.81
7086.73
7086.56
7086.39
7086.36
7086.33
7086.21
7086.19
7086.15
7086.3
7086.13
7086.19
7086.25
7086.22
7086.21
7086.11
7086.24
7086.05
7086.1
7086.21
7086.13
7085.88
7085.96
7086.1
7086.18
7086.23
7086.14
7085.75
7086.01
7086.15
7086.2
7086.28
7086.16
7085.61
7086.13
7086.25
7086.36
7086.22
7085.81
7084.33
7085.85
7086.26
7086.46
7086.08
7086.11
7086.38
7086.43
7086.42
7086.4
7086.38
7086.38
7086.36
7086.32
7086.3
7086.32
7086.24
7086.35
7086.41
7086.41
7086.39
7086.38
7086.39
7086.4
7086.41
7086.41
7086.41
7086.41
7086.41
7086.41
7086.41
7086.41
7086.41
7086.42
7086.43
7086.42
7086.45
7086.47
7086.45
7086.44
7086.42
7086.41
7086.41
7086.41
7086.42
7086.42
7086.42
7086.41
7086.42
7086.42
7086.41
7086.41
7086.41
7086.41
7086.41
7086.41
7086.41
7086.41
7086.41
7086.41
7086.41
7086.41
7086.41
7086.41
7086.41
7086.41
7086.41
7086.41
7086.41
7086.41
7086.41
7086.41
7086.41
7086.41
7086.41
7086.41
7086.41
7086.41
7086.41
7086.41
7086.41
7086.41
7086.41
7086.41
7086.41
7086.41
7086.41
7086.41
7086.41
7086.41
7086.41
7086.41
7086.41
7086.41
7086.41
7086.41
7086.41
7086.41
7086.41
7086.41
7086.41
7086.41
7086.41
7086.41
7086.41
7086.41
7086.41
7086.41
7086.41
7086.41
7086.41
7086.4
7086.41
7086.41
7086.41
7086.41
7086.41
7086.41
7086.42
7086.42
7086.42
7086.41
7086.43
7086.43
7086.43
7086.42
7086.42
7086.42
7086.42
7086.42
7086.42
7086.41
7086.41
7086.42
7086.42
7086.42
7086.41
7086.41
7086.4
7086.39
7086.39
7086.39
7086.35
7086.36
7086.35
7086.37
7086.34
7086.33
7086.29
7086.31
7086.27
7086.3
7086.24
7086.25
7086.12
7086.24
7086.26
7086.15
7086.09
7086.21
7086.18
7086.14
7086
7086.12
7086.05
7085.86
7085.85
7086.03
7086.09
7086.11
7086.18
7086.1
7086.01
7085.98
7085.83
7085.93
7085.89
7085.7
7085.68
7085.9
7085.99
7085.99
7086.07
7086.09
7086.05
7085.98
7086.16
7085.87
7085.71
7085.59
7085.83
7085.65
7085.59
7085.54
7085.55
7085.54
7085.56
7085.55
7085.64
7085.61
7085.46
7085.75
7086.1
7086.44
7086.6
7086.42
7086.55
7086.72
7086.86
7087.15
7087.25
7086.98
7087.03
7086.64
7087.13
7086.67
7087.13
7086.52
7086.48
7086.44
7086.53
7086.47
7087.16
7086.62
7086.57
7086.65
7086.45
7086.52
7086.59
7086.38
7086.24
7086.2
7086.19
7086.27
7086.13
7086.15
7086.15
7085.99
7085.83
7085.96
7085.71
7086.09
7085.58
7085.46
7086.01
7085.76
7085.59
7085.41
7085.22
7085.3
7085.35
7085.39
7085.48
7085.46
7085.99
7086.37
7086.6
7086.78
7085.66
7085.84
7086.17
7086.32
7085.96
7086.14
7086.4
7086.56
7087.13
7086.73
7086.8
7086.65
7086.36
7086.35
7086.19
7086.26
7086.29
7086.17
7086.01
7085.8
7085.83
7085.77
7085.93
7085.91
7085.85
7085.84
7085.65
7085.41
7085.43
7085.56
7085.83
7085.76
7085.69
7085.74
7085.64
7085.75
7085.77
7085.88
7085.96
7086.09
7085.86
7086.15
7086.39
7086.06
7085.9
7086.03
7086.27
7086.55
7086.7
7086.78
7086.65
7086.33
7086.03
7086.12
7086.04
7085.85
7086.44
7085.73
7085.58
7086.38
7086.15
7085.89
7085.6
7085.48
7085.75
7086.14
7086.34
7087.07
7087.36
7087.45
7087.12
7086.28
7086.75
7086.29
7086.42
7086.71
7086.56
7086.98
7087.26
7086.88
7086.9
7086.92
7086.74
7086.74
7086.45
7086.49
7086.81
7086.6
7086.66
7087.19
7086.66
7086.78
7086.51
7086.42
7086.25
7086.58
7086.47
7086.95
7087.43
7088.14
7088.23
7088.96
7088.96
7089.05
7088.12
7087.95
7088.31
7087.1
7087.29
7086.66
7086.95
7086.87
7087.03
7086.99
7086.79
7086.39
7085.92
7085.86
7085.6
7085.45
7085.24
7085.17
7085.19
7085.32
7085.25
7085.41
7085.47
7085.49
7085.64
7085.43
7085.31
7085.15
7085.07
7085.14
7085.23
7085.61
7085.94
7086.16
7086.45
7086.57
7087.13
7087.04
7086.81
7087.17
7087.42
7087.64
7087.04
7087.76
7087.75
7087.69
7087.71
7087.8
7087.53
7088.11
7088.14
7088.82
7089.37
7090.03
7090.43
7089.79
7090.39
7090.25
7090.57
7091.63
7091.49
7091.63
7089.18
7089.31
7088.1
7088.39
7088.14
7087.89
7087.38
7087.7
7087.47
7087.37
7087.49
7087.4
7086.9
7087.4
7087.63
7088.42
7088.19
7088.78
7090.37
7089.37
7089.52
7088.69
7087.98
7087.66
7088.46
7088.19
7087.7
7087.48
7087.33
7087.58
7087.2
7087.06
7086.5
7086.47
7086.36
7086.14
7086.16
7086.38
7086.02
7086.47
7086.87
7087.22
7087.56
7088.42
7087.8
7088.58
7088.7
7088.57
7088.67
7089.32
7089.31
7089.52
7090.1
7090.67
7091.44
7091.79
7092.74
7092.77
7092.44
7092.86
7092.88
7093.03
7093.13
7091.52
7091.7
7091.52
7090.71
7089.25
7089.29
7088.82
7088.35
7088.46
7087.95
7087.78
7087.76
7087.2
7087.41
7087.38
7086.96
7086.87
7086.61
7086.58
7086.2
7085.91
7086.29
7086.3
7086.48
7086.94
7087.69
7088.55
7088.6
7090.44
7090.23
7090.43
7090.96
7091.21
7091.87
7092.66
7093.04
7093.99
7093.73
7094.55
7094.38
7094.7
7094.85
7094.74
7094.18
7093.13
7092.81
7092.84
7092.24
7090.62
7090.05
7090.22
7089.52
7088.27
7088.09
7088.98
7090.37
7091.97
7091.39
7090.36
7090.48
7090.5
7090.37
7092.34
7092.34
7092.33
7092.52
7093.03
7093.04
7093.75
7094.04
7094.66
7095.1
7095.31
7095.16
7095.46
7095.44
7095.75
7096.1
7094.65
7094.9
7094.13
7094.33
7094.86
7094.66
7094.27
7094.58
7096.12
7095.98
7096.05
7096.23
7096.24
7095.75
7095.15
7093.96
7092.19
7091.34
7093.13
7094.66
7093.51
7092.72
7092.46
7093.67
7093.43
7093.46
7093.6
7093.74
7093.95
7094.36
7094.86
7094.88
7095.46
7096.02
7096.34
7096.5
7096.65
7096.74
7096.89
7096.88
7096.61
7096.7
7096.43
7096.33
7095.39
7095.3
7094.14
7093.59
7092.95
7091.75
7092.79
7094.46
7095.4
7096.23
7096.31
7096.07
7095.88
7095.84
7095.71
7095.52
7095.65
7096.06
7096.03
7096.47
7096.6
7097.22
7097
7097.58
7097.77
7097.95
7098.13
7098.08
7097.83
7097.83
7097.73
7097.6
7096.53
7096.13
7097.15
7096.92
7097.32
7098.27
7097.76
7097.17
7097
7096.47
7096.09
7095.91
7095.93
7095.98
7096.14
7096.46
7097.02
7097.38
7098.29
7098.67
7099.11
7097.42
7097.63
7097.83
7099.18
7098.98
7098.71
7098.73
7098.23
7099.01
7098.96
7098.33
7098.45
7097.41
7096.99
7096.8
7096.79
7097.03
7097.5
7097.13
7096.85
7096.67
7096.91
7096.83
7097.29
7097.92
7098.18
7099
7099
7099.26
7099.5
7099.21
7099.03
7099.08
7098.76
7098.76
7098.34
7099.09
7099.95
7099.97
7099.77
7099.15
7098.9
7098.75
7098.59
7098.26
7098.06
7098.58
7098.47
7099.25
7099.91
7100.39
7099.88
7100.44
7100.28
7100.5
7100.74
7101.14
7101.09
7101.09
7099.77
7099.83
7099.95
7101.4
7102.56
7102.43
7101.86
7100.56
7099.52
7099.48
7100.54
7101.85
7100.7
7101.21
7100.58
7100.06
7100
7099.88
7099.85
7099.85
7099.66
7100.11
7100.6
7101.2
7102.11
7102.57
7103.66
7104.01
7101.74
7101.06
7101.24
7101.55
7101.84
7102.16
7101.2
7101.47
7101.77
7099.84
7099.87
7100.1
7099.36
7098.84
7098.37
7099.13
7099.84
7100.3
7102.58
7102.69
7102.73
7102.63
7102.65
7102.93
7102.87
7103.48
7103.73
7104.58
7104.67
7104.65
7104.2
7104.01
7102.29
7102.16
7101.91
7103.17
7103.89
7103.94
7103.54
7103.12
7103.15
7102.52
7101.53
7103.62
7103.69
7103.64
7103.68
7103.73
7103.79
7103.85
7104.1
7104.49
7104.47
7105.18
7104.96
7105.33
7104.95
7105.68
7105.62
7104.5
7104.49
7103.66
7103.49
7102.74
7102.5
7103.58
7103.14
7104.25
7104.17
7104.12
7104.94
7104.48
7104.68
7104.48
7104.51
7104.59
7104.83
7105.58
7106.06
7105.99
7106.18
7106.29
7106.05
7106.51
7106.33
7106.68
7106.89
7105.22
7105.4
7105.74
7105.52
7105.35
7104.37
7104.46
7105.15
7105.08
7104.65
7105.61
7105.07
7106.77
7106.4
7106.79
7107.04
7107.02
7106.61
7106.62
7106.98
7106.98
7107.16
7107.42
7107.67
7107.67
7107.72
7106.84
7106.58
7106.27
7106.03
7107.61
7107.32
7109.22
7109.39
7108.79
7107.85
7106.07
7105.13
7105.69
7107.39
7109.1
7112.78
7112.76
7112.69
7112.11
7111.69
7111.02
7110.07
7109.91
7109.55
7108.81
7109.38
7110.33
7110.92
7107.89
7108.11
7108.38
7109.16
7109.77
7109.22
7107.62
7107.55
7107.66
7109.5
7109.64
7113.18
7117.24
7116.64
7116.49
7115.85
7115.87
7115.45
7115.19
7114.15
7114.21
7114
7114.71
7116.01
7116.37
7118.01
7118.71
7113.57
7111.55
7112.47
7112.85
7113.72
7114.09
7112.13
7112.98
7114.21
7113.6
7113.66
7109.72
7110.16
7113.43
7113.13
7117.09
7116.63
7120.05
7120.05
7119.47
7118.61
7118.99
7118.78
7118.62
7119.41
7119.31
7120.25
7119.94
7121.51
7123.57
7123.98
7120.56
7123.74
7122.75
7122.86
7123.15
7123.44
7123.58
7118.96
7116.67
7119.78
7123.82
7126.52
7125.02
7124.05
7123.68
7123.62
7125.19
7125.79
7125.59
7125.26
7128.43
7128.61
7128.03
7127.05
7126.15
7122.06
7117.87
7117.75
7122.07
7121
7121.16
7124.96
7123.6
7122.33
7122.18
7121.92
7121.88
7122.74
7123.66
7124.49
7125.99
7127.38
7128.79
7128.82
7127.17
7128.91
7128.34
7128.57
7128.51
7130.49
7130.51
7130.62
7131.27
7131.57
7131.37
7131.35
7131.64
7130.62
7131.4
7130.77
7130.72
7129.75
7129.27
7128.61
7128.05
7126.82
7124.61
7122.88
7124.8
7128.54
7130.88
7130.92
7130.59
7130.7
7130.81
7130.39
7130.09
7130.52
7131.16
7131.66
7132.05
7132.6
7132.64
7133.07
7132.99
7133.06
7133.1
7133.19
7132.6
7132.8
7132.34
7132.92
7132.71
7132.17
7131.75
7131.48
7132.05
7133.05
7132.57
7132.43
7131.97
7131.73
7131.78
7132.02
7132.5
7132.31
7132.77
7132.86
7133.32
7133.85
7133.84
7133.76
7133.97
7133.87
7133.95
7134.01
7133
7133.19
7132.49
7132.55
7133
7132.22
7132.88
7132.78
7132.39
7131.98
7133.14
7133.13
7133.9
7133.56
7133.63
7133.19
7132.56
7132.5
7132.92
7133.05
7132.39
7131.27
7131.62
7132.54
7133.41
7133.47
7133.78
7134.26
7134.04
7133.74
7133.68
7133.78
7133.8
7133.79
7133.49
7134.16
7133.95
7134.63
7134.88
7135.59
7136.07
7136.23
7135.9
7134.69
7134.29
7134.61
7134.06
7134.08
7133.42
7133.08
7133
7133.14
7132.72
7132.7
7132.8
7132.88
7133.16
7132.99
7132.97
7132.83
7132.91
7133.04
7133.28
7133.53
7133.71
7133.76
7134.58
7134.64
7134.68
7134.7
7134.73
7134.88
7135.45
7135.98
7136.78
7137.48
7138.14
7138.2
7137.57
7136.8
7137
7135.93
7135.56
7135.58
7134.9
7134.91
7134.89
7134.89
7135.01
7134.85
7135
7134.15
7133.92
7133.87
7134.03
7134.2
7135.05
7136.25
7135.63
7135.58
7135.49
7135.5
7135.86
7135.79
7135.82
7136.76
7136.66
7136.33
7135.65
7134.76
7134.35
7133.77
7133.54
7133.8
7133.61
7134.05
7134.49
7134.46
7134.81
7134.8
7134.36
7134.28
7134.08
7133.88
7134.07
7134.13
7134.7
7134.88
7136.2
7135.69
7135.49
7135.47
7135.61
7135.77
7136.63
7136.88
7137.74
7137.95
7138.84
7139.44
7140.15
7140.25
7139.5
7138.62
7138.62
7138.28
7137.47
7137.52
7137.49
7137.43
7137.43
7138.14
7138.49
7137.73
7137.53
7136.55
7136.06
7135.38
7136.44
7138.21
7137.68
7137.68
7137.74
7137.76
7137.86
7138.29
7139.04
7139.49
7140.28
7140.64
7141.22
7141.83
7142.51
7142.46
7142.15
7141.39
7140.69
7140.86
7140.29
7140.21
7138.62
7138.59
7137.45
7137.44
7136.67
7136.49
7136.53
7135.68
7135.14
7134.4
7134.26
7134.65
7134.16
7134.44
7135.18
7136.4
7137.85
7138.62
7140.04
7139.74
7139.43
7139.29
7139.34
7139.62
7139.74
7140.37
7140.91
7141.2
7141.96
7142.11
7142.48
7142.77
7142.75
7142.49
7142.11
7141.78
7142.14
7141.54
7141.38
7141.23
7141.13
7141.07
7141.08
7141.15
7140.05
7138.73
7137.98
7137.32
7138.82
7140.12
7141.28
7141.07
7141.12
7140.86
7139.87
7139.48
7137.96
7137.93
7139.62
7140.76
7140.79
7140.84
7140.94
7141.42
7141.56
7141.83
7142.44
7142.54
7142.91
7143.03
7143.14
7143.25
7143.36
7143.3
7143.3
7143.14
7142.83
7143.05
7143.03
7143.06
7143.01
7142.35
7142.03
7142.02
7140.81
7140.75
7140.22
7140.13
7138.49
7138.5
7137.65
7137.49
7136.64
7135.89
7137.27
7138.75
7140.11
7141.12
7141.42
7142.18
7142.01
7141.83
7141.94
7142.02
7142.07
7142.4
7142.47
7142.93
7143.08
7143.27
7143.49
7143.45
7143.55
7143.59
7143.55
7143.57
7143.48
7143.42
7143.52
7143.24
7143.08
7142.9
7142.75
7142.66
7142.62
7142.6
7142.9
7142.8
7142.67
7142.15
7141.59
7140.69
7139.6
7139.15
7139.74
7141.04
7140.51
7140.68
7141.81
7141.95
7142.2
7142.15
7141.97
7141.44
7141.39
7142.01
7142.49
7142.84
7143
7143.27
7143.1
7143.03
7142.81
7142.41
7141.96
7141.6
7140.69
7139.39
7139.38
7140.61
7141.55
7142.19
7142.19
7142.67
7142.6
7142.48
7142.46
7142.5
7142.59
7142.72
7142.85
7143.17
7143.28
7143.35
7143.47
7143.61
7143.63
7143.73
7143.77
7143.81
7143.78
7143.8
7143.57
7143.51
7143.51
7143.43
7143.46
7143.25
7143.28
7143.22
7143.25
7142.92
7142.85
7142.96
7142.27
7142.26
7142.15
7142.05
7141.35
7141.42
7140.69
7140.03
7138.76
7138.01
7138.13
7137.36
7136.44
7135.54
7135.84
7135.95
7135.91
7135.61
7135.61
7134.67
7134.68
7135.42
7135.49
7136.58
7137.47
7138.83
7138.79
7140.11
7141.22
7141.95
7142.49
7142.52
7142.98
7143.06
7143.15
7143.25
7143.32
7143.45
7143.5
7143.59
7143.71
7143.71
7143.81
7143.86
7143.93
7143.98
7143.97
7143.97
7143.81
7143.76
7143.76
7143.8
7143.69
7143.62
7143.57
7143.58
7143.56
7143.59
7143.36
7143.35
7143.16
7143.17
7143.21
7143.21
7143.14
7143.38
7143.73
7143.71
7143.73
7143.78
7143.82
7143.83
7143.79
7143.76
7143.72
7143.74
7143.91
7143.95
7143.8
7143.59
7143.54
7143.36
7143.19
7143.22
7143.07
7143.07
7142.93
7142.91
7142.79
7142.91
7142.55
7142.46
7142.58
7142.54
7142.27
7142.39
7142.81
7143.07
7142.99
7143.3
7143.38
7143.63
7143.5
7143.35
7143.26
7143.06
7143.11
7142.97
7142.65
7142.62
7142.68
7142.98
7143.26
7143.25
7143.27
7143.29
7143.35
7143.41
7143.49
7143.58
7143.58
7143.64
7143.75
7143.76
7143.85
7143.93
7144.01
7144.09
7144.16
7144.15
7144.17
7144.05
7144.02
7144.04
7144.07
7144
7144
7143.99
7143.96
7143.95
7143.91
7144.21
7144.22
7144.23
7144.25
7144.27
7144.28
7144.24
7144.25
7144.22
7144.19
7144.17
7144.17
7144.16
7144.21
7144.07
7144.08
7144.11
7144.01
7143.99
7143.82
7143.56
7143.46
7143.24
7143.26
7143.06
7142.86
7143
7143.22
7143.09
7143.32
7143.53
7143.59
7143.5
7143.38
7143.37
7143.37
7143.71
7143.57
7143.6
7143.58
7143.6
7143.64
7143.69
7143.74
7143.69
7143.8
7143.81
7143.91
7143.98
7144.07
7144.16
7144.24
7144.3
7144.32
7144.33
7144.34
7144.33
7144.33
7144.43
7144.36
7144.48
7144.45
7144.43
7144.4
7144.38
7144.38
7144.28
7144.3
7144.31
7144.23
7144.22
7144.22
7144.15
7144.04
7143.94
7143.74
7143.65
7143.37
7143.39
7143.6
7143.47
7143.68
7143.72
7143.88
7143.86
7143.71
7143.59
7143.88
7143.83
7143.81
7143.7
7143.51
7143.53
7143.37
7143.36
7143.52
7143.7
7143.84
7143.84
7144.06
7143.94
7143.91
7143.91
7143.89
7143.86
7143.84
7143.85
7143.98
7143.95
7144.07
7144.1
7144.22
7144.33
7144.42
7144.48
7144.53
7144.57
7144.6
7144.41
7144.48
7144.45
7144.55
7144.51
7144.48
7144.47
7144.45
7144.44
7144.41
7144.43
7144.34
7144.37
7144.29
7144.31
7144.25
7144.19
7144.09
7144.01
7143.84
7143.81
7143.98
7143.87
7144
7144.04
7144
7144.02
7144.19
7144.09
7144.17
7144.13
7144.12
7144.08
7144.03
7144.01
7144.02
7143.94
7144.11
7144.13
7144.24
7144.37
7144.47
7144.56
7144.65
7144.74
7144.72
7144.71
7144.66
7144.62
7144.64
7144.61
7144.64
7144.6
7144.59
7144.5
7144.57
7144.52
7144.54
7144.52
7144.51
7144.55
7144.35
7144.34
7144.34
7144.35
7144.39
7144.51
7144.48
7144.51
7144.53
7144.49
7144.45
7144.5
7144.47
7144.48
7144.41
7144.47
7144.45
7144.41
7144.42
7144.4
7144.36
7144.33
7144.28
7144.21
7144.13
7144.11
7144.21
7144.27
7144.3
7144.24
7144.31
7144.46
7144.5
7144.42
7144.43
7144.31
7144.19
7144.21
7144.15
7144.3
7144.43
7144.59
7144.89
7145.17
7145.3
7146.11
7146.71
7147.06
7147.13
7147.12
7146.83
7146.27
7145.87
7145.65
7145.33
7145.13
7145.01
7144.91
7144.82
7144.73
7144.83
7144.76
7144.82
7144.81
7144.84
7144.86
7144.88
7144.87
7144.84
7144.94
7144.72
7144.57
7144.57
7144.14
7144.71
7144.73
7144.53
7144.15
7144.1
7144.11
7144.19
7144.28
7144.26
7144.1
7144.1
7144.31
7144.52
7145.2
7145.65
7145.45
7145.79
7145.66
7144.95
7146.07
7145.21
7144.67
7143.83
7142.56
7145.57
7145.52
7145.95
7145.62
7145.49
7145.26
7145.11
7144.97
7144.86
7144.73
7144.64
7144.49
7144.67
7144.65
7144.65
7144.74
7144.72
7144.71
7144.64
7144.59
7144.57
7144.68
7144.65
7144.64
7144.59
7144.54
7144.63
7144.56
7144.53
7144.59
7144.56
7144.51
7144.45
7144.47
7144.52
7144.47
7144.47
7144.45
7144.46
7144.43
7144.4
7144.36
7144.49
7144.52
7144.69
7144.8
7144.9
7145.13
7145.17
7145.26
7145.09
7144.33
7144.43
7141.09
7136.39
7135.77
7134.47
7134.01
7133.82
7134.07
7135.29
7136.17
7137.06
7141.25
7143.76
7144.92
7145.24
7145.25
7145.24
7145.18
7145.08
7144.96
7144.87
7145.03
7145.15
7145.25
7145.35
7145.38
7145.28
7145.29
7145.24
7144.7
7144.66
7144.72
7144.68
7144.66
7144.6
7144.65
7144.62
7144.57
7144.5
7144.48
7144.61
7144.71
7144.83
7144.69
7144.81
7144.83
7144.97
7144.85
7144.92
7144.72
7144.85
7144.44
7143.33
7140.93
7137.42
7133.97
7132.47
7131.6
7130.61
7130.58
7130.82
7131.3
7131.72
7133.02
7133.75
7132.02
7131.82
7131.29
7131
7130.78
7132.59
7130.83
7130.81
7130.76
7130.25
7130.23
7130.24
7130.46
7130.54
7130.34
7130.13
7130.02
7130
7129.83
7130.06
7130.15
7130.19
7130.21
7130.23
7130.11
7131.46
7131.58
7132.61
7134.2
7135.45
7138.27
7141.3
7142.84
7143.54
7144.3
7144.68
7144.91
7145
7144.94
7144.85
7144.73
7144.59
7144.79
7144.84
7144.71
7144.52
7144.67
7144.65
7144.56
7144.5
7144.43
7144.38
7144.35
7144.32
7144.3
7144.24
7144.24
7144.36
7144.28
7144.43
7144.36
7144.44
7144.46
7144.49
7144.54
7144.61
7144.59
7144.47
7144.41
7144.36
7144.33
7144.31
7144.25
7144.22
7144.34
7144.36
7144.41
7144.43
7144.45
7144.48
7144.52
7144.51
7144.27
7144.23
7144.14
7144.08
7144.08
7144.08
7144.1
7144.16
7144.17
7144.2
7144.09
7144.17
7144.25
7144.34
7144.37
7144.46
7144.39
7144.5
7144.45
7144.53
7144.39
7144.43
7144.45
7144.5
7144.47
7144.52
7144.58
7144.53
7144.48
7144.46
7144.49
7144.47
7144.47
7144.45
7144.51
7144.48
7144.49
7144.54
7144.57
7144.57
7144.53
7144.44
7144.51
7144.68
7144.58
7144.72
7144.75
7144.81
7144.64
7144.7
7144.47
7144.41
7143.84
7144.5
7144.83
7145.39
7145.01
7144.2
7143.17
7142.93
7143.2
7141.22
7138.54
7135.49
7133.78
7132.52
7131.68
7130.6
7130.04
7129.67
7130.03
7128.91
7129.23
7129.41
7129.52
7129.68
7129.51
7129.38
7129.33
7129.17
7129.19
7128.97
7128.93
7128.04
7128.32
7128.67
7128.95
7129.09
7129.17
7128.95
7128.97
7130
7129.7
7130.07
7130.83
7131.39
7132.06
7133.52
7134.56
7136.68
7138.99
7141.56
7143.06
7143.58
7144.15
7144.42
7144.72
7144.81
7144.77
7144.66
7144.52
7144.42
7144.19
7144.42
7144.61
7144.36
7144.41
7144.13
7144.25
7143.92
7144.32
7144.47
7144.61
7144.67
7144.58
7144.44
7144.12
7144
7144.11
7143.84
7143.95
7143.86
7144.02
7144.14
7144.24
7144.33
7144.4
7144.46
7144.44
7144.51
7144.4
7144.46
7144.5
7144.5
7144.51
7144.48
7144.44
7144.3
7144.12
7144.27
7144.44
7144.35
7144.43
7144.57
7144.45
7144.31
7144.08
7144.04
7144.23
7144.17
7144.32
7144.2
7144.35
7144.45
7144.53
7144.3
7144.2
7143.8
7142.89
7142.31
7142.75
7139.7
7138.22
7137.27
7136.16
7134.57
7133.04
7132.39
7131.44
7130.04
7129.29
7129.1
7129
7128.03
7126.66
7126.67
7127.03
7127.4
7128.04
7128.41
7128.46
7128.2
7128.07
7128.09
7129.04
7129.09
7129.25
7130.35
7130.96
7131.02
7132.94
7132.86
7133.43
7135.13
7137.02
7138.76
7139.82
7142.06
7143.3
7143.59
7144.08
7144.32
7144.58
7144.64
7144.57
7144.46
7144.31
7144.17
7143.92
7143.81
7143.66
7143.28
7143.64
7143.94
7144.19
7144.17
7144.11
7144.1
7144.12
7144.22
7144.36
7144.43
7144.31
7144.14
7143.96
7144.03
7143.88
7143.84
7143.94
7144.02
7144.28
7144.1
7143.72
7143.63
7143.61
7143.92
7143.63
7143.82
7143.79
7143.96
7143.98
7143.96
7144.08
7144.21
7144.02
7143.78
7143.63
7143.3
7143.07
7143.08
7143.33
7143.44
7143.56
7143.81
7144.04
7143.98
7144
7144.01
7144.11
7144.25
7144.07
7144.24
7144.31
7144.52
7144.52
7144.34
7144.47
7144.38
7144.56
7144.48
7144.25
7144.2
7144.3
7144.11
7144.22
7144.07
7144.03
7143.8
7143.52
7143.68
7143.76
7143.75
7144.21
7143.72
7141.92
7137.84
7134.28
7132.88
7131.61
7130.06
7130.32
7132.6
7131.6
7131.7
7131.77
7131.95
7131.84
7131.92
7133.69
7135.48
7135.87
7137.81
7138.27
7140.19
7141.91
7142.63
7143.41
7143.65
7143.99
7144.2
7144.33
7144.48
7144.5
7144.39
7144.26
7144.1
7143.94
7143.69
7143.51
7143.25
7142.85
7142.77
7142.23
7142.9
7143.4
7143.36
7143.21
7143.15
7142.86
7143.34
7143.96
7143.92
7143.64
7143.99
7144.06
7143.91
7143.95
7144.13
7144.39
7144.57
7144.5
7144.26
7143.89
7143.77
7144.08
7144.14
7144.73
7144.98
7145.01
7144.72
7144.31
7144
7144.07
7144.15
7144.14
7144.09
7144.23
7144.24
7144.08
7144.21
7144.28
7144.37
7144.47
7144.56
7144.59
7144.7
7144.74
7144.88
7145.03
7144.99
7144.81
7144.7
7144.63
7144.73
7144.84
7144.72
7144.65
7144.58
7144.54
7144.58
7144.61
7144.64
7144.61
7144.62
7144.45
7144.53
7144.45
7144.37
7144.16
7144.01
7144.18
7144.19
7144.02
7143.9
7143.79
7143.61
7143.63
7143.69
7143.79
7143.94
7143.93
7143.9
7143.86
7143.61
7143.38
7143.14
7142.91
7142.58
7142.2
7142.52
7142.28
7141.71
7141.55
7140.95
7141.69
7142.44
7142.35
7142.11
7142.06
7142.48
7143.08
7143.47
7143.44
7143.07
7142.74
7143.71
7143.76
7144.7
7144.82
7144.63
7144.08
7143.5
7143.11
7142.51
7142.9
7143.24
7143.47
7143.42
7143.6
7143.54
7143.23
7142.67
7142.26
7141.94
7141.24
7141.44
7141.77
7142.02
7142.05
7142.57
7142.43
7142.68
7141.42
7141.41
7142.3
7142.48
7143.1
7143.52
7143.27
7143.55
7143.68
7143.46
7143.6
7143.7
7143.81
7143.96
7144.22
7144.03
7143.74
7143.42
7143.38
7142.9
7143.25
7143.27
7143.1
7142.84
7142.77
7142.61
7142.35
7142.39
7142.6
7142.56
7142.6
7142.7
7142.88
7142.85
7142.82
7142.73
7142.4
7142.09
7141.77
7141.44
7140.92
7141.31
7140.92
7140.5
7139.89
7140.7
7141.14
7140.39
7140.56
7139.85
7140.97
7141.3
7141.6
7141.83
7140.95
7141.06
7141.16
7140.01
7140.15
7141.28
7140.48
7140.89
7141.64
7141.92
7142.63
7142.78
7143.28
7143.33
7143.5
7143.66
7143.23
7143.21
7142.77
7142.24
7142.54
7142.46
7142.79
7142.98
7142.72
7142.26
7142.02
7141.67
7141.57
7142.11
7142.02
7142.33
7142.53
7142.17
7141.65
7141.32
7140.94
7140.8
7140.78
7141.11
7141.72
7141.61
7141.21
7141.15
7141.22
7141.34
7141.28
7141.2
7141.08
7140.66
7140.25
7139.79
7139.05
7139.15
7139.21
7138.86
7138.04
7139.22
7139.59
7139.62
7138.95
7138.97
7140.06
7140.27
7140.39
7139.31
7139.51
7138.16
7138.71
7139.08
7139.43
7140.01
7140.52
7141.24
7141.68
7142.23
7142.51
7143
7143.01
7142.46
7141.94
7142.03
7141.43
7141
7140.44
7139.73
7139.67
7140.42
7139.87
7139.28
7139.33
7139.26
7139.43
7140.17
7140.49
7139.88
7138.57
7138.64
7137.74
7137.48
7137.32
7137.28
7137.08
7137.11
7136.62
7136.63
7136.91
7136.32
7135.75
7134.68
7136.01
7137.1
7136.61
7135.84
7137.3
7137.77
7137.65
7136.8
7138.3
7138.42
7139.14
7139.89
7140.01
7140.21
7140.8
7140.6
7140.93
7141.2
7141.61
7140.9
7140.97
7141.37
7141.28
7141.78
7141.53
7140.92
7140.56
7141.01
7141.5
7141.96
7142.42
7142.8
7143.18
7143.29
7143.61
7143.44
7143.88
7143.65
7143.55
7143.8
7143.48
7143.41
7143.69
7143.94
7143.94
7143.86
7143.65
7143.44
7143.27
7142.94
7142.95
7143.1
7142.7
7142.34
7142.13
7142.1
7141.56
7141.63
7142.15
7142.28
7141.78
7142.04
7141.61
7142.04
7141.7
7141.37
7140.95
7141.06
7140.6
7140
7139.77
7139.94
7140.31
7140.51
7140.54
7140.46
7139.16
7139.35
7138.77
7138.33
7137.95
7136.5
7135.56
7137.41
7136.66
7136.08
7135.61
7135.28
7134.99
7134.25
7133.74
7132.76
7131.99
7133.13
7134.48
7133.9
7135.7
7135.47
7136.9
7136.93
7138.69
7137.75
7138.26
7136.8
7137.22
7139.02
7137.66
7138.38
7138.98
7137.76
7136.77
7137.04
7136.26
7137.13
7136.09
7135.61
7137.49
7135.63
7136.79
7135.71
7135.06
7134.04
7133.88
7133.43
7132.84
7132.3
7131.48
7131.05
7132.1
7131.33
7130.65
7131.56
7133.8
7132.46
7132.16
7132.21
7132.01
7132.75
7134.83
7133.76
7133.59
7133.74
7134.2
7135.09
7135.73
7136.01
7134.76
7135.6
7137.54
7136.3
7137.13
7137.5
7136.76
7136.38
7136.14
7136.96
7135.59
7137.15
7136.04
7137.28
7137.42
7136.59
7135.22
7133.46
7133.52
7132.68
7132.14
7132.39
7132.87
7135.39
7135.53
7132.91
7133.28
7132.43
7132.34
7133.22
7132.91
7134.23
7131.02
7131.61
7132.49
7133.04
7132.88
7135.41
7133.92
7134.98
7135.61
7136.28
7135.9
7135.9
7136.06
7135.98
7139
7137.1
7139.26
7139.17
7138.04
7135.48
7133.23
7133.44
7132.96
7134.08
7134.52
7137.73
7140.21
7139.21
7140.57
7137.87
7136.71
7139.03
7138.93
7133.06
7135.11
7136.01
7132.94
7133.77
7135.52
7134.41
7135.25
7135.52
7136.37
7138.35
7139.39
7143.9
7142.27
7143.78
7142.08
7140.96
7138.6
7137.28
7139.76
7140.74
7144.29
7147.16
7146.86
7146.63
7142.03
7141.52
7143.15
7143.35
7136.77
7137.62
7139.12
7134.14
7135.13
7134.81
7135.39
7136.77
7139.67
7142.46
7145.37
7144.88
7145.31
7143.24
7141.64
7141.44
7138.48
7137.98
7139.87
7143.13
7145.11
7146.44
7153.49
7150.62
7149.2
7150.53
7151.02
7149.78
7153.83
7152.08
7155.9
7160.13
7159.31
7156.77
7158.32
7153.1
7149.69
7146.57
7143.43
7144.41
7144.7
7142.62
7142
7142.04
7143.97
7143.39
7142.65
7143.15
7145.22
7146.15
7150.2
7151.14
7159.11
7159.2
7159.24
7157.05
7147.25
7147.26
7142.02
7143.13
7141.04
7141
7141.63
7138.2
7137.11
7138.1
7137.84
7140.67
7144.03
7147.72
7152.84
7153.95
7160.84
7157.57
7156.76
7147.02
7147.11
7147.28
7147.48
7145.26
7141.37
7141.48
7140.62
7143.99
7147.85
7152.78
7155.36
7155.21
7149.59
7152.89
7158.75
7159.61
7159.87
7154.28
7148.16
7147.39
7145.2
7149.78
7152.01
7158.77
7159.39
7160.61
7157.11
7157.26
7156.92
7156.55
7157.12
7161.33
7309.71
7309.71
7309.7
7309.69
7309.68
7309.68
7309.67
7309.66
7309.66
7309.66
7309.66
7309.68
7309.69
7309.7
7309.71
7309.72
7309.72
7309.72
7309.72
7309.72
7309.71
7309.71
7309.71
7309.72
7309.72
7309.72
7309.73
7309.74
7309.74
7309.75
7309.76
7309.77
7309.77
7309.78
7309.78
7309.78
7309.79
7309.79
7309.79
7309.78
7309.78
7309.78
7309.78
7309.78
7309.78
7309.78
7309.78
7309.78
7309.78
7309.78
7309.78
7309.78
7309.78
7309.78
7309.78
7309.78
7309.78
7309.78
7309.78
7309.78
7309.78
7309.78
7309.78
7309.78
7309.78
7309.78
7309.78
7309.78
7309.78
7309.78
7309.78
7309.78
7309.78
7309.78
7309.78
7309.78
7309.78
7309.78
7309.78
7309.78
7309.78
7309.78
7309.78
7309.78
7309.78
7309.78
7309.78
7309.78
7309.78
7309.78
7309.78
7309.78
7309.78
7309.78
7309.78
7309.78
7309.78
7309.79
7309.78
7309.79
7309.79
7309.79
7309.78
7309.78
7309.78
7309.78
7309.78
7309.78
7309.78
7309.78
7309.78
7309.78
7309.78
7309.78
7309.78
7309.78
7309.78
7309.78
7309.78
7309.78
7309.78
7309.78
7309.78
7309.78
7309.78
7309.78
7309.78
7309.78
7309.78
7309.78
7309.78
7309.78
7309.78
7309.78
7309.78
7309.78
7309.78
7309.78
7309.78
7309.78
7309.78
7309.78
7309.78
7309.78
7309.78
7309.78
7309.78