/*--------------------------------*- C++ -*----------------------------------*\
| =========                 |                                                 |
| \\      /  F ield         | OpenFOAM: The Open Source CFD Toolbox           |
|  \\    /   O peration     | Version:  5.0                                   |
|   \\  /    A nd           | Web:      www.OpenFOAM.org                      |
|    \\/     M anipulation  |                                                 |
\*---------------------------------------------------------------------------*/
FoamFile
{
    version     2.0;
    format      ascii;
    class       surfaceScalarField;
    location    "60";
    object      phi;
}
// * * * * * * * * * * * * * * * * * * * * * * * * * * * * * * * * * * * * * //

dimensions      [0 3 -1 0 0 0 0];

internalField   nonuniform List<scalar> 
102676
(
9.37223e-10
-5.18099e-10
1.09556e-10
-8.09591e-10
1.98626e-09
-1.70536e-09
-8.12983e-10
-3.4458e-10
1.09785e-09
9.96925e-10
1.81807e-10
-7.8095e-10
-7.31949e-10
4.74147e-10
-5.27368e-10
8.48544e-10
-9.13448e-10
7.2222e-10
-1.83173e-10
2.13191e-09
1.4423e-09
-1.62781e-09
1.7946e-09
-2.17778e-09
3.35437e-09
-8.39296e-10
8.55206e-10
-1.16118e-09
2.32475e-09
-2.24192e-10
-1.69969e-09
2.3365e-09
1.50342e-09
-1.28503e-09
-9.44055e-10
-3.05389e-10
1.86259e-10
-6.36512e-10
4.40681e-10
-1.22627e-09
-9.27678e-10
7.69201e-10
-9.23269e-10
-1.02622e-10
-1.34598e-09
-7.58151e-10
2.0384e-10
-4.26722e-10
-8.73977e-10
-2.49139e-10
-8.8704e-10
5.52237e-10
-6.87633e-10
-9.89751e-10
-1.08844e-09
7.64415e-10
-6.22801e-10
-4.99938e-11
2.10115e-10
-5.27087e-10
3.07562e-10
-4.81578e-10
-9.39872e-10
4.91071e-10
9.00612e-10
-3.89511e-10
-2.53547e-10
-3.36947e-10
-4.17386e-10
-4.46525e-10
-1.13153e-10
-5.09228e-10
1.59119e-10
-6.03329e-10
-2.81214e-10
2.78888e-10
3.81971e-10
-1.75316e-10
-1.60694e-10
6.72983e-10
-5.07866e-10
-3.10522e-10
8.1803e-10
-4.96197e-10
-5.62306e-10
1.27797e-09
-7.82859e-10
8.18235e-10
-4.95322e-10
1.26521e-09
8.45947e-10
-1.10963e-10
3.39155e-09
1.32669e-09
-2.01074e-09
3.25177e-09
4.27016e-09
-7.76024e-10
2.13795e-09
3.50525e-09
-6.66735e-11
8.12035e-10
-6.99307e-10
1.97312e-09
5.21007e-11
-1.75397e-09
2.7008e-09
1.07497e-09
-1.20977e-09
-1.38306e-09
1.26629e-09
9.42144e-10
-9.31288e-10
1.095e-10
-1.33942e-09
3.141e-09
1.39367e-10
-9.9881e-10
-3.42528e-09
-3.04108e-10
1.45867e-09
-2.04279e-09
-7.89983e-11
-1.11725e-09
-8.65172e-10
-4.45135e-10
-7.83996e-10
5.15026e-11
6.44308e-10
8.9679e-10
-8.43284e-10
-1.563e-09
-1.7628e-10
-2.54933e-09
-8.59127e-10
3.34495e-09
-3.85224e-09
-3.88018e-09
-2.17171e-09
6.18274e-09
1.17202e-09
-3.88861e-09
-5.75617e-09
-3.66794e-09
7.27717e-09
2.18327e-09
-3.5026e-09
-6.1126e-09
-5.25221e-09
8.18647e-09
2.7923e-09
-2.59587e-09
-6.10984e-09
-5.70098e-09
7.7963e-09
3.10775e-09
-1.43179e-09
-5.10302e-09
-4.89181e-09
6.22557e-09
2.60516e-09
-6.23922e-10
-3.51339e-09
3.73727e-09
-2.92478e-09
1.893e-09
-1.60599e-10
-1.49429e-09
1.73699e-09
-1.4697e-09
7.63665e-10
-5.45421e-11
4.66584e-11
-2.17588e-10
-4.35253e-10
5.00119e-10
2.90882e-11
-7.36857e-11
-1.06182e-10
9.6234e-11
1.16729e-10
-1.61494e-10
1.20506e-10
6.54866e-11
4.80217e-11
9.11535e-11
-8.79386e-11
1.55114e-10
1.79551e-10
-8.82133e-11
-1.80972e-10
6.88235e-11
6.56774e-12
1.15074e-10
-3.53585e-11
7.67175e-11
1.217e-10
-4.5296e-11
-8.43039e-11
1.57596e-10
1.63241e-10
-1.83616e-10
-6.05115e-11
3.76147e-10
-2.31795e-10
-1.62079e-10
2.44529e-10
-1.06276e-10
-2.69985e-10
3.79052e-11
2.72052e-10
-1.88017e-10
1.22588e-10
1.10692e-10
-9.02156e-11
9.21164e-11
-7.46886e-11
2.79983e-10
-3.93435e-10
2.23494e-10
-5.21592e-10
-2.04779e-10
7.2837e-10
-1.83109e-10
7.4361e-11
-3.96127e-10
1.14228e-09
5.05938e-10
-1.01616e-10
9.36817e-10
1.06134e-09
-9.93202e-12
3.86694e-09
7.57524e-11
-1.67919e-09
3.91095e-09
4.81006e-09
-5.8392e-10
2.58209e-09
4.74617e-09
8.79352e-11
1.52287e-09
2.84532e-09
1.87024e-10
1.62353e-09
4.27757e-09
-1.67744e-09
-6.277e-09
8.64763e-09
1.06065e-09
-1.80775e-09
2.82454e-10
-2.34349e-09
-3.51414e-09
6.46391e-09
-6.43349e-10
-2.02397e-09
-2.10471e-09
-2.5001e-10
-1.02006e-09
-4.37589e-09
2.72736e-12
1.96434e-09
-2.8277e-09
-4.98352e-10
-1.12885e-09
-1.32526e-09
-3.75061e-10
-1.0759e-09
-5.15601e-10
-2.65243e-10
-1.15889e-10
-4.28535e-10
5.1185e-10
-2.86631e-10
-1.4271e-09
6.86268e-10
-4.52391e-10
-1.44302e-10
-9.004e-10
-3.13519e-10
-8.01489e-10
-3.72924e-10
-7.21816e-11
-1.46983e-10
-3.0832e-10
2.75693e-10
-4.59476e-10
-5.28198e-10
3.3905e-10
7.7397e-10
-4.3468e-10
-1.35788e-10
-4.17894e-10
-1.98215e-09
-9.9019e-10
-2.12725e-09
-3.05811e-09
1.43441e-09
-2.69579e-09
-3.41887e-09
-2.99212e-09
-4.28834e-09
2.65432e-09
-4.5446e-09
-2.07089e-09
-5.02677e-09
2.9702e-09
-4.97454e-09
-1.01997e-09
-4.39561e-09
2.4641e-09
-4.22246e-09
-2.95693e-10
-3.20267e-09
1.38056e-09
-2.41559e-09
-1.0565e-10
1.74884e-10
-5.56948e-10
-1.30229e-09
1.1868e-10
-2.23646e-10
-1.91581e-10
1.90892e-10
2.61538e-10
-3.6662e-10
3.98637e-10
1.14931e-10
-1.20142e-10
1.33219e-10
1.3352e-10
8.30521e-11
-1.96774e-10
-9.2485e-11
3.2113e-10
1.90386e-10
-4.5416e-10
-1.69697e-10
5.16509e-10
3.18093e-10
-5.56656e-10
-2.15836e-10
6.44767e-10
-5.22716e-10
-1.52049e-10
-4.22615e-10
-1.30582e-09
7.24111e-10
-2.54648e-10
-1.45974e-09
7.35098e-10
-8.20643e-11
-1.19497e-09
5.68204e-10
-6.82649e-10
2.83659e-10
1.57439e-10
-4.42666e-10
-1.76619e-10
-2.2082e-10
3.72793e-10
-7.33667e-10
-6.76676e-10
5.09469e-10
-8.84794e-10
-7.11652e-10
5.83066e-10
-8.19916e-10
-5.59519e-10
-5.75641e-10
-2.1586e-10
-7.694e-10
-9.78619e-10
7.1289e-10
-4.66286e-10
4.26534e-12
1.12064e-10
-4.19454e-10
3.06502e-10
-8.76017e-10
-2.66326e-10
3.69541e-10
-1.9277e-10
-3.16388e-10
-1.4121e-10
-5.02768e-10
-4.33601e-10
-2.4102e-10
-3.04159e-10
-3.29705e-10
3.30786e-10
-5.33373e-10
-2.0409e-10
1.65649e-10
2.89632e-10
-1.07267e-09
6.71148e-10
3.7052e-10
-4.01956e-10
1.44436e-10
-7.76706e-10
-1.85307e-10
-4.1109e-10
-5.82277e-10
4.95344e-10
5.48507e-11
-5.11541e-10
-2.23965e-10
3.33129e-10
1.89445e-10
4.43697e-10
-4.70936e-10
2.61882e-10
-3.9951e-11
-8.03867e-11
2.42927e-10
6.37686e-11
-1.57203e-10
2.02897e-10
7.71719e-11
-1.4333e-10
7.24688e-11
9.19297e-11
1.36291e-10
-9.77973e-11
3.0693e-11
5.56994e-11
8.23011e-11
4.01832e-12
-2.35827e-11
4.68202e-11
3.42987e-12
-2.07358e-12
-4.5204e-12
-2.70466e-12
1.33117e-11
3.28203e-12
-1.05672e-11
1.70028e-12
3.50589e-12
8.2123e-14
-8.06498e-12
3.33264e-13
1.0927e-11
2.28404e-12
-1.18448e-11
9.13483e-12
5.04019e-13
2.48273e-11
-3.75909e-11
2.41788e-11
-9.13564e-12
2.13301e-11
-3.71981e-11
9.01284e-11
-4.94356e-11
-1.19836e-10
-1.5313e-10
-5.34603e-11
5.9664e-11
-1.67194e-11
4.73645e-11
-6.7706e-11
3.10728e-11
-5.59071e-12
1.23996e-10
-4.85748e-11
2.78923e-11
9.63641e-11
1.95979e-10
7.07823e-11
8.98667e-11
-2.13463e-10
-1.70723e-11
1.57023e-10
2.59385e-11
1.48852e-10
-1.18785e-10
-4.74418e-12
-8.55363e-12
-2.49559e-13
9.15095e-12
-1.26876e-11
-7.14839e-12
2.92594e-12
4.93243e-12
-5.45743e-12
-5.27442e-12
3.00141e-12
-6.35729e-12
1.47583e-12
-1.81418e-12
1.39549e-12
-4.62925e-12
-2.30816e-13
-3.61655e-12
3.27223e-12
3.74293e-12
-5.21723e-12
-2.03834e-12
5.63728e-13
-1.3727e-12
-7.74216e-13
-2.90731e-12
1.44678e-12
-3.14479e-12
2.56283e-12
-3.1116e-12
-1.08687e-12
-1.16403e-12
2.45056e-12
-1.79656e-12
-4.69532e-12
6.94203e-12
-3.56493e-12
-1.00146e-11
1.51633e-11
1.88295e-12
-8.83066e-12
-2.53033e-13
9.71882e-12
2.34671e-12
5.44391e-12
3.61916e-12
7.33613e-13
-4.7297e-13
6.11729e-12
5.16583e-12
-9.75753e-13
4.32685e-12
1.12966e-12
2.12415e-12
1.03392e-12
5.76477e-12
-9.16881e-12
2.00959e-11
-2.33784e-12
-7.56224e-12
-1.20394e-11
-5.83139e-12
3.23735e-12
-8.91852e-12
-8.11995e-12
-1.37062e-12
-4.30602e-12
-3.63102e-12
-5.62237e-12
-1.38766e-12
-1.79618e-12
-2.12529e-12
9.95591e-13
-2.9669e-12
-3.1904e-12
1.81759e-12
2.94508e-12
-1.02102e-12
-2.21251e-13
-2.08575e-12
3.55394e-13
-1.38474e-12
6.96517e-13
4.63813e-13
-8.0029e-13
-1.57852e-12
4.03426e-13
-1.33391e-12
1.12077e-12
2.55076e-12
-2.92307e-12
-5.45627e-12
4.24637e-12
1.9454e-12
-1.58949e-13
-7.27834e-13
-2.77271e-12
5.98493e-12
-5.57319e-12
4.08559e-12
-6.78096e-13
-3.34761e-12
5.34832e-12
-8.19541e-12
1.66367e-12
-8.25789e-13
1.36258e-12
3.53934e-12
-1.66803e-12
-1.17567e-12
-2.7989e-15
-1.71428e-13
-4.50219e-13
-4.39723e-13
-1.17707e-13
-1.92086e-13
4.94603e-14
8.26184e-14
-1.14427e-13
-3.2691e-13
1.83315e-13
1.81065e-13
-2.32234e-13
7.66108e-13
9.58242e-13
-6.03737e-13
-1.45119e-12
-3.04531e-13
1.03019e-12
-8.81474e-13
2.62933e-13
-4.55709e-13
2.82763e-14
1.96238e-13
-6.29119e-14
1.55094e-13
-6.68344e-15
-6.09054e-14
-3.41494e-14
-1.37885e-14
6.24531e-15
-2.71297e-14
-2.04414e-13
-1.20331e-14
6.07801e-14
-4.21974e-13
-4.39908e-14
2.23787e-14
-4.62736e-13
-1.296e-13
3.38624e-14
1.33709e-13
7.40331e-13
7.25157e-14
-2.39725e-12
1.1182e-12
-5.45235e-14
5.76391e-14
-3.35529e-12
5.09904e-13
-1.75326e-12
-1.14965e-12
-2.39741e-13
-2.16112e-13
1.48879e-12
2.19873e-13
3.05195e-12
-6.51682e-12
-3.21081e-12
6.23212e-13
-9.47001e-13
-7.83641e-13
5.09972e-12
-9.27497e-12
8.57251e-12
-5.34642e-12
-2.50405e-11
1.85905e-11
3.89572e-11
-2.74094e-11
-4.38308e-11
2.46759e-11
-4.20384e-11
-1.9657e-10
4.35011e-10
-3.98248e-10
5.04683e-10
-3.86931e-10
-6.29114e-11
-1.98858e-10
2.39588e-10
-2.13163e-10
3.87596e-11
-1.1731e-12
6.65661e-11
-6.6653e-11
-7.26338e-11
1.09582e-11
2.60758e-12
5.96129e-12
7.27577e-12
-1.0919e-11
-7.09424e-12
1.22268e-11
-1.27432e-11
2.1162e-11
-8.32778e-12
-1.08357e-11
2.3386e-12
1.6965e-11
-1.00115e-11
-8.85689e-12
-1.32007e-11
7.6377e-13
3.23729e-12
3.47424e-12
-2.64015e-12
-2.50717e-12
-7.68083e-13
1.06327e-12
1.26204e-12
-7.97361e-13
-3.02973e-13
6.34218e-13
-4.57911e-13
-6.46719e-13
-5.0722e-14
1.59544e-13
-1.17622e-13
-2.98144e-13
2.93105e-13
3.93866e-15
1.03882e-12
-5.93511e-13
1.71653e-12
-1.84626e-12
3.87136e-13
-1.8625e-12
6.97824e-12
-7.51949e-13
2.30365e-12
-1.28503e-12
-2.13555e-12
-4.43845e-13
-3.48283e-13
-7.62032e-13
-1.08298e-13
-1.62681e-13
-6.39737e-13
-2.52833e-14
9.31913e-15
-2.17617e-13
1.8331e-14
-7.01618e-14
1.18981e-14
-7.3188e-15
4.35212e-15
5.17091e-15
1.23453e-14
-4.80992e-15
9.23467e-15
-9.61685e-15
2.79767e-15
8.10284e-16
-1.62379e-15
5.81617e-15
3.41805e-15
-2.41648e-15
-4.42314e-15
3.73141e-15
-3.4575e-15
1.87877e-15
-3.50238e-16
3.05679e-15
9.86537e-15
9.8026e-16
2.35125e-14
-4.2217e-14
-3.37532e-15
-1.65728e-15
-2.89072e-15
7.57798e-15
-1.42411e-14
-7.53754e-15
-2.20795e-15
2.2674e-15
-7.86003e-15
5.30663e-15
5.2239e-15
3.35752e-15
-1.07847e-14
5.88014e-15
4.28976e-15
1.57756e-15
-9.04631e-16
2.24569e-15
-4.4473e-16
-8.95435e-15
5.07222e-15
-2.42028e-16
-5.62439e-14
2.00351e-14
-3.55999e-14
5.68439e-14
-1.06677e-13
3.18534e-14
-7.44984e-14
8.92799e-14
-2.987e-13
-2.25398e-14
2.23161e-13
-1.25483e-14
-1.13473e-12
6.21491e-13
2.83904e-13
-2.26377e-12
1.66446e-12
2.42224e-12
-2.96266e-12
-1.90268e-12
-1.54724e-12
6.63257e-13
5.17542e-13
-5.59457e-12
2.18572e-12
1.7226e-12
-8.18491e-13
2.48739e-12
-1.43651e-12
-5.8289e-12
-6.20765e-12
8.6747e-12
8.18385e-13
-4.10506e-12
3.41922e-11
-1.86023e-11
-3.20949e-12
2.40906e-11
-6.90927e-11
-1.03914e-10
6.6365e-11
5.22218e-12
-3.88208e-11
3.15437e-10
-3.82183e-11
-1.36492e-10
7.34496e-10
2.81637e-10
-1.94765e-10
1.44673e-10
1.95705e-09
-1.99071e-10
-1.16816e-09
3.15752e-09
-1.87577e-09
2.35496e-09
2.50349e-09
2.56118e-10
2.99541e-09
4.54733e-09
-3.77726e-10
2.5091e-09
4.69475e-09
5.37722e-10
1.83176e-09
3.05386e-09
4.68796e-10
4.23166e-09
3.93511e-09
-2.05743e-09
1.17725e-09
-2.07841e-09
4.62751e-09
5.0531e-10
-2.61486e-09
3.92395e-09
6.99656e-10
-8.31493e-10
8.17921e-10
3.13644e-09
-8.60119e-09
2.58466e-09
3.39228e-09
3.44217e-09
1.80173e-10
-1.2568e-09
-2.71266e-09
4.62615e-09
-6.62148e-10
-1.07117e-09
-1.77693e-09
-7.11881e-10
-8.67205e-10
-1.11416e-09
-4.64315e-10
-4.48468e-10
-3.13542e-09
6.54604e-10
1.36938e-09
-2.26117e-09
-6.71235e-10
-7.01377e-10
-1.26908e-09
-5.46655e-10
-8.20519e-10
-7.77778e-10
-2.00237e-10
-4.06964e-10
-1.79467e-09
-1.33146e-10
8.63388e-10
-1.21156e-09
2.64154e-10
-3.15701e-10
-5.31591e-10
-6.24271e-10
1.35321e-10
-2.04627e-10
-5.17985e-10
2.66224e-10
-5.00209e-10
-9.78471e-10
5.88181e-10
2.12135e-10
2.61912e-10
-4.49245e-10
2.4142e-10
1.15641e-10
-3.5915e-10
-7.25568e-11
8.01678e-10
-2.88809e-10
-5.08271e-10
-2.24809e-09
-1.20463e-09
3.6379e-09
-1.62938e-09
9.35917e-10
-3.46766e-09
-3.34459e-09
-2.90332e-09
5.21097e-09
2.25648e-09
-3.2399e-09
-5.1228e-09
-5.2403e-09
6.94422e-09
3.1911e-09
-2.44645e-09
-5.11154e-09
-7.10171e-09
7.83418e-09
3.58561e-09
-1.18752e-09
-5.45259e-09
-6.79709e-09
7.1091e-09
3.88164e-09
-6.59381e-10
-4.0701e-09
-4.18262e-09
5.53388e-09
2.19067e-09
2.67427e-09
-1.78104e-09
-1.90887e-09
-1.06297e-10
3.00825e-09
-2.20503e-09
6.75035e-10
9.66854e-10
-6.46073e-10
8.56089e-10
-5.47858e-10
3.00533e-10
6.25883e-10
-4.41668e-10
3.38225e-10
4.25567e-10
-5.50668e-11
-8.45397e-11
3.35392e-10
1.83213e-10
2.46877e-10
2.79902e-11
-8.71173e-12
6.19419e-11
4.26404e-11
4.68046e-11
3.04849e-11
-6.76038e-13
3.29171e-11
-1.70272e-11
2.13813e-11
1.41668e-11
1.19562e-11
-5.27831e-12
-6.73157e-12
-7.3606e-12
-9.31232e-12
-2.19368e-12
3.90487e-13
-5.60834e-12
-4.85928e-12
-2.05999e-12
2.88256e-12
-4.13611e-12
-4.9254e-12
-3.53538e-12
4.95888e-12
1.4339e-12
1.07195e-12
-3.3275e-12
-1.62447e-12
-1.05061e-12
4.38854e-13
-1.55978e-12
-1.34784e-12
-1.18849e-13
-4.47657e-13
-2.83016e-13
-9.11335e-14
-3.18481e-13
-6.07704e-14
2.88767e-16
-2.09463e-13
-5.10939e-14
-1.83346e-16
3.47066e-15
3.88973e-15
-1.06069e-14
5.723e-15
-8.54455e-15
8.5697e-15
6.72211e-15
-8.07592e-15
6.50295e-15
-1.20486e-15
4.20323e-15
3.4464e-15
-4.54912e-15
5.27521e-16
1.90323e-15
-4.46059e-15
1.20396e-14
-4.4772e-15
-6.67339e-15
1.91918e-14
-6.91383e-15
-1.1996e-14
2.3579e-15
-4.54588e-15
-8.68799e-16
1.30073e-14
2.63969e-15
1.90654e-14
2.37291e-14
-1.59134e-13
5.48722e-14
3.93168e-14
7.97329e-14
-6.52771e-13
1.55091e-14
3.98517e-13
7.41023e-14
9.07973e-13
-2.78242e-12
3.46998e-14
1.32592e-12
1.48871e-12
-1.52997e-12
-1.78208e-12
1.94007e-13
3.32731e-13
-5.56994e-12
-2.05188e-12
2.98644e-12
3.1029e-12
6.94158e-12
-9.20844e-12
1.772e-11
5.84556e-12
1.30336e-11
-2.96658e-11
5.87494e-11
-7.40263e-11
2.07573e-10
1.90231e-10
-1.34716e-10
-2.04343e-10
9.97373e-10
-7.07243e-10
2.433e-09
-1.16302e-09
2.34748e-09
-2.62011e-09
2.8131e-10
-8.27488e-10
1.02627e-09
1.9529e-09
1.27768e-09
2.75413e-11
1.47957e-09
1.6012e-09
3.71885e-10
3.85193e-09
1.21488e-09
4.55172e-09
5.29347e-10
1.28551e-09
2.69421e-09
2.89015e-10
4.27005e-09
2.65333e-09
-1.70275e-09
1.55765e-09
6.99096e-09
3.48953e-10
9.54016e-10
5.72372e-09
-1.19614e-09
-4.19208e-09
5.75403e-09
2.48529e-10
-8.56455e-10
-2.04238e-10
-7.03521e-10
-1.75369e-09
5.69007e-09
-7.4833e-10
-7.91221e-10
5.08117e-09
-1.41748e-09
-3.07362e-09
3.68525e-09
-1.22699e-09
-1.75858e-10
-2.25609e-09
-1.42652e-09
-5.31636e-11
-1.56353e-09
-1.27084e-09
-1.33601e-10
-1.45397e-09
8.0729e-11
-1.08647e-09
5.62092e-10
-4.35837e-10
-4.93757e-10
-9.22888e-10
-5.17466e-10
-3.17357e-10
-6.15597e-10
-4.52242e-10
-4.01713e-10
-4.31449e-10
-2.11844e-10
-1.72551e-10
-1.52819e-09
2.8107e-10
6.82511e-10
-1.22382e-09
-3.11402e-10
-3.08683e-10
-6.62913e-10
-2.33829e-10
-5.31713e-10
-2.49985e-10
-1.28355e-10
-4.85656e-11
-2.36012e-10
2.68026e-10
-4.85659e-12
-8.24236e-10
3.11079e-10
-2.7067e-10
-8.98711e-11
-6.13172e-10
-8.79471e-11
-5.48026e-10
5.08596e-10
-6.73055e-10
-1.05921e-09
6.10492e-10
9.26696e-10
-1.08081e-10
-3.97968e-10
7.26125e-10
7.6655e-10
-1.01523e-09
-4.99594e-10
-2.08337e-09
-2.15461e-09
1.16034e-09
-2.40418e-09
-3.86128e-09
-2.64014e-09
1.6994e-09
-1.81258e-09
-5.14586e-09
-3.29455e-09
2.73726e-09
-1.15266e-09
-5.23918e-09
-3.17376e-09
2.3004e-09
7.30793e-10
-2.09428e-09
-3.81958e-09
-3.97071e-11
-5.99075e-11
-8.15359e-10
-6.90362e-11
-1.97916e-10
-3.75236e-10
-2.08142e-10
-6.90033e-11
-3.03435e-10
4.87016e-10
-2.19061e-10
-8.17263e-11
-3.94372e-10
-2.84399e-11
-1.79443e-10
4.56595e-10
-3.46838e-10
-1.67519e-10
2.93253e-11
3.8744e-10
-1.58355e-10
7.03016e-11
2.4718e-10
-1.24333e-10
1.2126e-10
9.66282e-11
-1.05462e-11
6.32956e-11
3.48994e-10
2.19707e-10
-2.20703e-10
-2.51375e-10
6.9638e-12
-1.14837e-10
2.9598e-10
1.60888e-10
1.33416e-10
3.9172e-12
5.7102e-11
3.22971e-11
4.00986e-11
3.86686e-11
2.65112e-11
1.3964e-10
4.79163e-11
-9.17881e-11
-5.15359e-11
5.27771e-11
8.66138e-11
5.17808e-11
2.2513e-11
-4.7545e-12
7.42782e-11
6.7161e-12
-4.4323e-11
2.25667e-10
5.64761e-11
-2.64455e-11
-1.81433e-10
-1.06934e-10
1.60258e-10
8.28512e-11
8.94838e-11
-3.4201e-11
7.80027e-12
-2.40656e-11
-8.32818e-12
-1.47705e-11
-4.39323e-12
-5.6137e-12
2.15851e-12
-1.19399e-12
-3.68695e-12
7.7312e-12
-5.51065e-12
9.57151e-13
1.18974e-11
-2.88677e-13
-1.76377e-11
2.52217e-11
9.15255e-11
1.16813e-11
-8.71076e-11
-2.9447e-11
2.28778e-12
2.33526e-11
-1.64042e-11
-9.65072e-13
-4.83387e-12
3.94019e-11
-3.15488e-11
-1.03016e-12
1.77353e-10
7.12948e-12
-1.46326e-10
1.23413e-12
5.87996e-10
7.41287e-11
-6.70063e-11
-4.17779e-10
3.99133e-10
-7.83932e-10
2.29809e-09
-9.13192e-10
2.49629e-10
-1.2354e-09
2.88492e-10
1.10191e-09
3.54852e-10
5.52828e-10
1.37605e-09
4.32432e-10
3.26027e-09
2.99233e-10
-1.08155e-09
7.39681e-10
1.34484e-10
6.17627e-10
1.76848e-09
3.00042e-09
-1.54978e-10
1.89176e-09
-3.99752e-09
3.19785e-09
9.41642e-09
-4.62131e-10
-9.15173e-09
1.54981e-09
1.5472e-08
-1.25589e-08
-1.26502e-09
1.56086e-10
1.43784e-08
-1.08537e-08
-2.13095e-09
4.94464e-10
7.31223e-09
-6.59655e-10
7.3688e-10
6.24888e-09
-7.67576e-10
-5.85261e-10
8.12136e-09
-1.04519e-09
-7.17772e-09
6.47031e-09
3.57206e-10
-2.35055e-10
-2.70523e-10
-9.68601e-10
-3.66241e-10
6.45537e-09
-1.27848e-09
-7.79688e-10
4.48029e-09
-3.8159e-10
-5.70501e-09
7.27493e-09
-2.05381e-09
-2.95806e-10
-4.78464e-09
-2.08406e-09
-6.33076e-11
-3.93817e-09
-1.89865e-09
-3.74346e-10
-2.87963e-09
-2.569e-09
2.39611e-10
-1.14559e-09
4.49297e-10
-1.62125e-09
-8.8136e-10
-7.13435e-10
1.33732e-11
-8.36561e-10
-8.9565e-10
3.33384e-10
-6.59939e-10
-8.61705e-10
2.32838e-10
-7.85312e-10
1.94587e-10
-9.39047e-10
7.61733e-10
-2.94505e-10
-3.13503e-10
-7.69215e-10
-2.81216e-10
-2.00024e-10
-5.33891e-10
-1.3308e-10
-3.3608e-10
-2.34002e-10
-1.63984e-10
-1.84476e-10
-8.38103e-10
2.33513e-10
3.65725e-10
-5.48721e-10
-4.87453e-11
7.02497e-11
-3.10897e-10
-3.54048e-11
6.53136e-11
4.87859e-10
-1.0665e-09
2.57496e-10
3.4843e-10
2.99849e-10
-9.41185e-10
1.9506e-10
-2.22204e-10
-3.8842e-10
-3.29499e-10
-1.83868e-09
2.10036e-09
-5.13532e-10
-2.9847e-09
3.76292e-09
1.46154e-09
-2.46897e-09
-1.60948e-09
-2.99598e-09
4.21866e-09
3.61381e-09
-5.48595e-09
-2.33524e-09
-1.98304e-09
-2.64329e-09
-7.56485e-09
4.60162e-09
4.59359e-09
-7.06846e-10
-1.83324e-09
4.41622e-09
-7.25526e-09
3.39609e-09
5.055e-11
7.917e-10
-5.25309e-10
-3.67796e-09
2.65417e-09
2.34284e-10
-2.97746e-10
-4.69668e-10
5.83685e-10
5.60804e-10
-5.81339e-10
1.04652e-09
2.58914e-10
-1.89928e-10
5.15309e-10
-2.34844e-11
2.1694e-10
-3.42763e-10
9.06393e-10
-5.21651e-10
4.45129e-10
-6.06741e-10
1.24124e-09
-8.62682e-10
4.62606e-10
-5.46716e-10
1.22624e-09
-6.97001e-10
1.66178e-10
-2.77478e-10
8.6799e-10
-2.94084e-10
-5.48076e-10
-7.33371e-10
-5.22085e-10
-5.55551e-10
2.52083e-10
-4.72008e-10
-8.30951e-10
2.34164e-10
-2.06319e-10
-1.03808e-09
1.65658e-10
-8.75035e-10
1.36028e-10
4.74387e-10
-3.09968e-10
-2.94053e-10
-7.45398e-10
6.62437e-10
-1.92946e-10
-1.03318e-09
6.46951e-10
-1.54251e-10
-6.61211e-10
2.87153e-10
4.08683e-11
-2.36623e-10
-2.6057e-10
9.75193e-11
-4.90986e-10
-4.14383e-10
1.02099e-10
9.25811e-11
-8.99178e-11
-1.5821e-10
4.07828e-11
-2.07039e-10
-1.39978e-11
-2.4196e-11
-1.10443e-10
5.87196e-11
-1.85514e-10
-1.40944e-10
-1.60377e-10
-2.8701e-11
-1.89382e-10
-7.51241e-12
4.0827e-11
1.49674e-10
-3.43364e-10
3.76989e-11
2.04689e-10
-5.59867e-10
3.29717e-10
-7.07739e-10
1.2167e-10
-1.07467e-09
-3.58274e-10
-9.27647e-10
-4.96493e-10
4.01607e-10
9.71648e-11
-1.0257e-10
-7.54477e-10
5.5254e-10
-7.9917e-10
1.90032e-10
4.58204e-10
7.29875e-10
-1.17202e-10
-5.298e-10
5.05838e-10
2.72114e-10
5.35609e-10
3.03312e-10
-6.33813e-11
-3.07173e-10
5.73083e-10
1.82849e-10
-2.76156e-11
-3.67616e-10
5.15698e-10
4.20355e-10
-5.15395e-10
-5.7272e-10
8.50612e-10
2.21382e-10
-2.13308e-10
5.02876e-11
3.6199e-10
1.10759e-10
-3.33449e-10
-3.71294e-10
2.29743e-10
-6.30469e-10
-5.03844e-10
1.01532e-09
2.98605e-10
-6.62772e-10
-5.18298e-10
1.11221e-09
3.77091e-11
-3.47618e-10
-2.67501e-10
-5.2707e-10
-5.58533e-10
-3.75694e-10
3.68997e-10
-2.81608e-10
4.69385e-10
-7.73366e-11
4.06493e-10
2.82293e-10
-2.51031e-09
3.77314e-10
-2.22528e-10
-6.09664e-09
1.41708e-09
4.57925e-09
-2.18747e-09
-6.21497e-10
2.56663e-09
-2.71068e-09
1.7482e-11
3.82343e-09
-3.50363e-09
5.47766e-10
1.68158e-09
-4.01695e-12
-1.0233e-09
1.3068e-09
-4.81058e-10
-2.19227e-10
-2.13351e-10
6.7854e-10
-5.8213e-10
6.13292e-11
-3.76964e-10
5.83033e-10
1.63367e-10
-2.35378e-10
3.80566e-10
-1.06441e-10
1.50552e-10
1.55538e-10
8.80701e-11
1.26191e-11
4.96573e-10
3.1694e-10
-3.66775e-10
-2.91212e-10
2.53327e-11
-1.62246e-10
4.15632e-10
2.17847e-10
1.11022e-10
-9.44246e-10
4.2551e-10
-5.95687e-10
6.05027e-10
-1.38019e-09
-1.1314e-10
5.69951e-10
-1.33122e-09
-3.90357e-10
-1.38373e-12
6.13005e-10
-4.33041e-10
-2.17414e-10
-3.52916e-10
5.00209e-10
2.83457e-10
-1.72063e-10
1.67307e-10
1.2263e-10
4.8018e-11
2.60113e-10
3.09457e-10
-2.41105e-10
-1.61157e-10
7.65428e-10
6.91409e-10
-5.12162e-10
-6.84561e-10
-1.48604e-10
4.04396e-10
4.30817e-10
7.88307e-11
-2.05587e-10
4.95585e-10
2.52811e-10
-4.41558e-11
1.44208e-10
3.81917e-12
1.60387e-10
9.62499e-11
2.95522e-10
2.49391e-10
-2.40315e-10
8.83297e-10
6.40646e-10
-7.32834e-10
-3.44264e-10
5.17704e-10
5.38367e-10
1.71495e-10
-2.47552e-10
3.99997e-10
1.43939e-10
-6.44266e-11
1.00657e-10
-3.43906e-11
1.48793e-10
1.15057e-10
2.96396e-10
1.74085e-10
-2.21031e-10
9.34635e-10
4.22511e-10
-6.60753e-10
-4.29813e-10
4.95152e-10
5.43918e-10
3.25377e-10
-2.41171e-10
2.61034e-10
-2.71685e-11
4.32029e-11
-5.75132e-11
2.48098e-10
-1.4473e-10
9.67581e-10
1.50426e-10
-6.08879e-10
2.02336e-09
2.51102e-10
-2.89659e-11
-1.27792e-09
-1.0911e-09
1.0986e-09
1.0321e-09
9.83759e-10
-5.00058e-10
4.72718e-11
-3.87218e-10
-7.30749e-12
-1.82075e-10
2.2997e-10
-1.47303e-10
-5.6183e-10
-7.42356e-10
-2.14051e-09
-1.8569e-10
2.11948e-09
-1.03451e-10
-8.78816e-10
-1.58705e-10
-6.54807e-10
-1.94712e-11
5.8317e-10
-1.71017e-10
-1.99776e-11
-6.31775e-11
4.20874e-10
-4.26511e-10
-1.07134e-11
-1.37847e-10
-1.85793e-11
6.37699e-10
-7.25905e-10
-1.63307e-10
-6.97383e-11
1.33083e-11
-3.10193e-10
2.36215e-10
2.40468e-10
6.98306e-10
-1.45281e-09
-2.57335e-10
9.50394e-10
3.01902e-10
5.29254e-10
2.13433e-10
-1.91417e-09
1.59393e-09
9.88525e-11
1.73251e-09
-1.85907e-09
-1.2651e-09
4.21936e-11
1.08779e-09
-4.9175e-10
-6.6532e-10
1.34113e-09
-1.79513e-09
3.45943e-10
-1.26212e-10
8.17322e-11
-6.67184e-10
-2.06626e-10
-2.48349e-11
-1.8183e-11
-2.03132e-11
-1.06413e-11
7.4907e-12
2.60752e-12
-1.06724e-11
-5.52224e-12
-7.90673e-12
-1.09951e-11
2.92711e-12
-4.38408e-12
-3.63581e-12
-1.28431e-11
-1.23046e-12
-1.3911e-12
-9.3112e-15
-1.48756e-12
-5.0663e-13
-2.12977e-13
-1.43175e-13
-1.56955e-12
3.01525e-13
-5.11281e-13
-2.9201e-12
3.81513e-13
1.06354e-12
-1.01478e-13
-4.04462e-12
-9.31329e-13
2.08431e-12
-1.81701e-12
-2.61227e-12
-1.39984e-12
3.00734e-13
1.67306e-12
-6.52938e-12
2.1707e-12
2.0434e-12
1.91533e-11
-3.41636e-11
9.69953e-12
-1.69546e-10
-1.94942e-10
1.17785e-10
-3.53872e-11
5.56688e-10
-6.13716e-10
-2.19303e-11
-2.21639e-10
-5.0291e-12
1.49676e-11
6.05406e-12
-9.42084e-12
-5.35357e-11
-5.98605e-12
-1.10031e-11
4.53638e-12
-5.72837e-13
1.29984e-12
-8.61777e-12
-1.4336e-12
-2.4995e-12
6.80473e-13
-2.83582e-12
-2.58463e-13
-3.39755e-13
3.87739e-12
5.15134e-12
3.90939e-12
-1.32554e-12
9.11134e-13
1.14978e-11
5.01246e-13
8.2158e-13
-9.84036e-12
5.46631e-12
-1.16681e-12
6.81276e-12
-1.4656e-12
1.13568e-12
-4.35102e-13
-4.78909e-13
-3.48616e-12
1.78567e-12
-1.58248e-13
-1.46429e-13
7.12668e-13
6.02396e-14
3.87324e-14
5.89436e-15
-2.3838e-13
-3.10721e-14
7.8347e-15
2.22696e-15
-4.22858e-15
2.08738e-15
6.46406e-15
9.91779e-16
4.09037e-15
-1.50026e-15
1.18094e-14
-8.52065e-15
8.93727e-15
-1.72297e-15
-8.41964e-15
2.58387e-14
2.99569e-14
-1.03131e-13
9.22731e-14
2.37948e-14
9.30081e-15
-1.97222e-13
3.71645e-14
9.3884e-14
4.22452e-13
7.17585e-13
3.60396e-13
-6.45541e-15
8.38183e-14
-1.46979e-13
-2.09725e-14
-1.48299e-13
-6.71338e-13
7.2456e-14
-3.50589e-14
1.48465e-13
-3.14072e-13
5.82184e-15
1.30297e-14
5.90219e-15
-1.47087e-14
7.59213e-15
-6.03919e-14
1.3288e-14
-9.81093e-15
-3.91363e-13
1.96763e-13
9.30456e-15
1.24967e-14
-8.41057e-14
2.86065e-14
1.19814e-14
4.78893e-15
-4.59495e-15
-3.22638e-15
5.05542e-14
-8.35499e-14
-4.04523e-15
8.24969e-15
-8.27286e-15
1.94212e-14
1.35347e-13
-3.37184e-13
1.76226e-13
-1.24488e-12
6.46084e-13
-1.66792e-14
4.98049e-13
-2.82525e-12
-4.83529e-14
1.13418e-12
2.1545e-13
-7.69179e-14
3.41278e-13
-7.01779e-12
3.18818e-12
2.8693e-13
2.71101e-12
-8.03959e-12
-1.50968e-14
7.95174e-13
-1.66402e-13
7.67701e-13
2.22134e-13
1.35613e-13
6.51381e-15
-1.92086e-15
3.78603e-13
9.63263e-13
1.77558e-13
-1.6323e-12
2.61152e-13
4.71306e-13
1.2284e-13
5.60909e-13
6.25601e-13
-1.09705e-12
1.59951e-12
-2.36961e-12
-1.09264e-12
-2.31919e-12
-4.38641e-12
6.68347e-12
-9.95123e-12
-1.36727e-12
-7.2554e-12
-3.02884e-12
1.59611e-12
-6.67701e-12
4.86418e-12
7.05843e-12
-1.44106e-11
9.80961e-12
-2.20021e-11
2.40037e-11
5.36695e-12
-1.23683e-11
-2.04159e-11
-1.88691e-11
1.24098e-11
-2.84611e-11
4.12392e-11
-4.23647e-11
-1.90373e-11
-6.44833e-12
7.12979e-12
-8.03578e-12
-1.48255e-11
2.66231e-12
2.65454e-12
-1.79705e-11
-4.67986e-12
8.61343e-12
-1.44932e-12
-2.17811e-11
1.30803e-12
1.10833e-12
-1.83135e-11
8.06757e-13
-7.28793e-12
-2.22242e-11
1.75673e-11
3.47349e-12
-4.01592e-11
1.32061e-10
-1.6636e-10
9.44643e-12
-5.36393e-10
4.79525e-10
5.97897e-11
8.11704e-12
-1.4783e-10
9.28267e-11
1.28586e-11
1.03094e-11
9.34502e-12
5.32654e-12
1.07847e-12
-6.18297e-13
6.27427e-12
-5.71701e-12
-9.1911e-12
4.00228e-13
7.76728e-12
9.47542e-13
2.57068e-12
1.07891e-13
-9.71443e-12
3.13661e-12
-5.31618e-12
-2.43619e-11
-3.52185e-13
1.2886e-11
-2.36688e-11
2.63358e-11
-4.0712e-11
1.05651e-11
-2.76208e-12
-8.45286e-12
-2.66276e-12
3.31634e-11
-2.5532e-10
2.09233e-10
-5.59118e-11
-2.88342e-10
-2.22949e-10
2.45208e-10
-4.7384e-12
-6.03492e-11
5.51293e-11
-3.90599e-10
1.91839e-10
8.95205e-11
7.48734e-10
-8.29115e-10
5.00138e-10
-7.2051e-10
-5.08933e-10
5.16353e-10
-2.5546e-10
-1.47708e-09
-6.84681e-10
7.6291e-10
1.14536e-09
-4.54441e-10
2.52727e-10
-1.0577e-09
7.41203e-10
2.25544e-09
1.05716e-09
-1.40608e-09
-2.53866e-09
-5.91989e-10
9.56799e-10
1.07295e-09
1.05631e-09
-5.42272e-10
-2.01809e-09
6.75251e-10
9.25333e-10
-2.57849e-09
1.8116e-09
-3.13904e-09
2.34353e-09
7.57051e-10
-1.61881e-09
2.28278e-09
1.75793e-09
-4.60415e-09
-1.50921e-09
2.41702e-09
-4.04881e-09
-6.6653e-10
-2.8558e-09
1.53311e-09
-1.34904e-09
-7.2818e-10
1.10029e-09
-2.45493e-09
9.51606e-10
-2.31181e-11
6.76871e-10
-1.50042e-09
-3.25354e-10
1.89092e-10
2.38791e-10
-2.2451e-10
-1.77959e-10
-1.61682e-10
6.37032e-10
6.88531e-10
-4.85334e-10
-6.01438e-10
-4.73439e-11
3.17083e-10
3.34304e-10
3.29922e-11
3.18116e-10
1.87114e-09
-2.93099e-09
1.37028e-09
-4.59501e-09
2.34915e-09
2.3615e-09
-1.49316e-09
-3.10955e-09
2.69129e-09
4.05175e-09
-6.73535e-09
-1.25085e-09
-4.03434e-09
1.90704e-09
-9.17853e-10
1.34147e-09
-2.89146e-09
-1.88649e-10
-4.95735e-11
7.29302e-10
-1.63346e-09
5.54812e-11
-5.9416e-10
-3.51025e-10
1.95246e-10
2.64989e-10
-2.00114e-10
-2.16894e-10
-1.99008e-10
4.79042e-10
6.94101e-10
-4.54604e-10
-4.53551e-10
-1.23116e-11
-8.45824e-12
2.5065e-10
2.49163e-10
3.91701e-10
2.24104e-09
-2.93655e-09
1.21507e-09
-4.74733e-09
2.2893e-09
-1.88128e-09
-4.2391e-09
2.92547e-09
5.63445e-09
-7.18688e-09
-8.52489e-10
2.69562e-09
-4.7764e-09
-1.83946e-09
-1.70404e-10
-1.53486e-10
7.61576e-10
-1.72324e-09
5.37555e-11
-5.48017e-10
-5.05583e-10
5.29312e-11
8.28294e-10
-4.58232e-10
-3.09639e-10
-5.66007e-10
-1.68879e-10
4.55936e-10
9.76364e-14
-5.78137e-10
2.09045e-10
-6.71086e-10
2.11118e-10
2.4317e-10
3.1323e-10
-3.7845e-10
-3.72465e-10
-2.334e-10
3.83998e-10
1.0586e-09
-3.32266e-10
-7.971e-10
3.01031e-10
1.22957e-09
-8.4016e-10
-3.06444e-10
9.1519e-11
-5.52401e-10
1.00205e-09
-2.40134e-10
-1.23314e-10
-2.07154e-10
5.91141e-10
-1.69155e-10
-3.785e-10
-1.04941e-10
8.6207e-11
2.73916e-10
-6.76072e-10
-2.85515e-10
1.89778e-10
3.93303e-10
-7.02376e-10
-6.40719e-10
5.83879e-10
8.31338e-11
-6.16085e-10
-6.98763e-10
5.9848e-10
1.39788e-11
-4.70372e-10
-4.29805e-10
2.80089e-10
3.99533e-12
5.23051e-10
-6.79086e-10
-1.21395e-09
8.99605e-10
2.5218e-10
5.15476e-10
7.4281e-10
-9.87421e-10
2.54977e-11
5.04153e-10
-8.81885e-10
6.04411e-10
-6.83446e-10
3.51405e-10
4.59633e-10
-2.03387e-10
-1.57669e-10
-2.81607e-10
-2.46029e-10
-1.81767e-10
2.00212e-10
1.70375e-10
-1.97579e-10
-5.21938e-10
3.03113e-10
7.20569e-11
5.9913e-10
3.95572e-10
-9.62352e-10
-9.19136e-10
-3.69977e-09
1.54156e-09
-3.17141e-09
-9.9455e-10
3.88112e-09
1.83987e-09
-6.54828e-09
-1.34957e-09
-3.60444e-10
-3.88733e-09
2.42274e-09
-8.81229e-10
-7.82781e-11
5.72461e-10
-3.48527e-10
-4.31962e-10
-6.73202e-10
3.08216e-10
-1.62578e-13
1.86129e-10
-1.66126e-10
-4.2889e-10
-5.53594e-10
1.89726e-10
-2.36419e-10
4.46319e-10
-1.39419e-09
6.3069e-10
6.81612e-11
-9.47591e-10
2.94486e-10
1.59085e-10
-6.64081e-10
1.41192e-10
5.47005e-10
5.91312e-11
-7.69686e-10
3.22635e-10
-2.78003e-10
-7.28637e-10
6.42309e-10
-9.5353e-10
9.23473e-11
6.41757e-10
-1.37851e-09
1.13606e-09
2.42996e-10
7.16338e-10
-1.75219e-12
3.78548e-10
-7.27673e-10
9.44209e-10
1.21254e-10
5.15438e-12
1.81717e-09
-1.70863e-09
1.25052e-10
2.14153e-09
-1.69155e-09
4.05228e-10
1.98345e-09
6.10067e-10
-1.18601e-09
8.97393e-10
8.44656e-10
7.19695e-10
-4.52954e-09
2.29892e-09
1.73654e-09
-3.76247e-09
2.87935e-09
1.81404e-09
-4.85039e-09
-1.21508e-09
-4.50657e-09
-5.29957e-09
2.48234e-09
-3.26462e-10
-2.464e-09
-1.33385e-09
-2.26939e-10
-8.8292e-10
-1.95284e-10
-8.44662e-10
3.54776e-10
2.46658e-10
1.44939e-12
2.20737e-10
-6.64128e-10
-3.58099e-10
-2.83019e-10
-6.49548e-10
-5.57763e-11
3.48676e-10
8.37428e-10
-3.5809e-10
-7.03819e-10
-4.25067e-10
-5.79172e-11