/*--------------------------------*- C++ -*----------------------------------*\
| =========                 |                                                 |
| \\      /  F ield         | OpenFOAM: The Open Source CFD Toolbox           |
|  \\    /   O peration     | Version:  5.0                                   |
|   \\  /    A nd           | Web:      www.OpenFOAM.org                      |
|    \\/     M anipulation  |                                                 |
\*---------------------------------------------------------------------------*/
FoamFile
{
    version     2.0;
    format      ascii;
    class       surfaceScalarField;
    location    "60";
    object      phiRest;
}
// * * * * * * * * * * * * * * * * * * * * * * * * * * * * * * * * * * * * * //

dimensions      [0 3 -1 0 0 0 0];

internalField   nonuniform List<scalar> 
102676
(
3.23801e-10
-2.33011e-10
3.96283e-11
-3.10999e-10
8.28305e-10
-6.47725e-10
-2.99565e-10
-1.09461e-10
4.2471e-10
3.08116e-10
8.98145e-11
-3.40357e-10
-2.82034e-10
1.97856e-10
-1.77874e-10
2.77636e-10
-3.06272e-10
2.81268e-10
-5.47775e-11
7.09877e-10
5.51432e-10
-5.58963e-10
5.7535e-10
-8.40594e-10
1.27993e-09
-3.04808e-10
2.37785e-10
-4.24471e-10
8.53092e-10
-9.10565e-11
-5.98829e-10
8.15853e-10
4.49577e-10
-4.28816e-10
-3.15831e-10
-8.27848e-11
1.95485e-12
-2.02168e-10
1.77011e-10
-4.30356e-10
-3.64718e-10
3.02231e-10
-2.83866e-10
-4.63784e-11
-5.2187e-10
-2.94475e-10
4.1132e-11
-1.80467e-10
-2.79857e-10
-1.02679e-10
-3.09094e-10
1.41624e-10
-2.21754e-10
-3.56705e-10
-4.43372e-10
3.10516e-10
-2.20005e-10
8.03232e-12
2.16284e-11
-1.66361e-10
1.2862e-10
-1.63658e-10
-3.8313e-10
1.98163e-10
3.67596e-10
-1.30979e-10
-9.99652e-11
-9.07256e-11
-1.61892e-10
-1.70182e-10
-2.63775e-11
-1.76201e-10
7.35809e-11
-2.62283e-10
-1.06686e-10
1.25206e-10
1.72584e-10
-6.31548e-11
-6.22266e-11
2.87884e-10
-1.93321e-10
-9.9854e-11
3.28426e-10
-1.79933e-10
-1.66882e-10
4.25101e-10
-2.8909e-10
2.98222e-10
-1.05807e-10
4.19388e-10
2.98679e-10
-1.16981e-11
1.15827e-09
4.91086e-10
-6.78541e-10
1.08279e-09
1.59307e-09
-2.3766e-10
6.94614e-10
1.26445e-09
-2.31855e-11
2.4958e-10
-2.56541e-10
6.91076e-10
1.04992e-11
-5.87656e-10
9.32526e-10
3.10334e-10
-4.05625e-10
-5.1446e-10
4.86116e-10
2.84727e-10
-3.50655e-10
1.04449e-12
-4.51714e-10
1.08643e-09
2.13924e-12
-3.52125e-10
-1.17921e-09
-1.61384e-10
5.38228e-10
-6.97198e-10
-1.14029e-10
-3.66033e-10
-2.89867e-10
-1.19983e-10
-2.52585e-10
-3.4763e-11
2.5266e-10
3.36368e-10
-3.32136e-10
-5.46758e-10
-9.04186e-11
-9.03032e-10
-3.90077e-10
1.28647e-09
-1.43431e-09
-1.49288e-09
-9.26459e-10
2.45505e-09
4.95564e-10
-1.50101e-09
-2.2247e-09
-1.46114e-09
2.89391e-09
8.58636e-10
-1.39664e-09
-2.33595e-09
-2.01289e-09
3.17576e-09
1.06872e-09
-1.0772e-09
-2.2786e-09
-2.16062e-09
2.9278e-09
1.19198e-09
-6.31859e-10
-1.86836e-09
-1.91633e-09
2.29325e-09
1.0461e-09
-3.07572e-10
-1.31039e-09
1.42363e-09
-1.27204e-09
8.34512e-10
-8.72337e-11
-6.11586e-10
7.43362e-10
-7.45361e-10
3.93247e-10
-2.52601e-11
4.27204e-11
-1.01638e-10
-2.58453e-10
2.55397e-10
2.48373e-11
-3.85548e-11
-7.65992e-11
6.50563e-11
7.70181e-11
-9.37359e-11
8.42747e-11
4.25619e-11
3.61604e-11
4.40972e-11
-4.58014e-11
8.86395e-11
1.10038e-10
-5.86532e-11
-9.7463e-11
3.94324e-11
8.44979e-12
5.78677e-11
-1.71105e-11
3.77059e-11
6.67453e-11
-2.27099e-11
-4.23097e-11
6.73989e-11
8.28605e-11
-8.64834e-11
-2.60711e-11
1.75631e-10
-1.06907e-10
-6.44802e-11
1.14327e-10
-4.37892e-11
-8.82295e-11
1.96482e-11
1.10596e-10
-8.5672e-11
6.97543e-11
4.23928e-11
-4.72592e-11
4.02065e-11
-1.56923e-11
1.11551e-10
-1.38495e-10
8.07469e-11
-1.79097e-10
-7.91891e-11
2.53596e-10
-6.77386e-11
2.42731e-11
-1.29384e-10
3.6541e-10
1.56811e-10
2.95963e-11
3.03173e-10
3.51678e-10
9.23704e-12
1.30059e-09
4.17342e-11
-5.48065e-10
1.30066e-09
1.70261e-09
-1.0961e-10
8.38667e-10
1.67392e-09
5.25334e-11
4.71441e-10
9.90942e-10
6.73605e-11
4.42445e-10
1.50125e-09
-5.39732e-10
-2.21957e-09
3.00162e-09
2.50048e-10
-5.89654e-10
1.5249e-11
-8.38061e-10
-1.19756e-09
2.24255e-09
-2.74482e-10
-7.55258e-10
-7.00497e-10
-1.20958e-10
-3.73968e-10
-1.49737e-09
-5.76637e-11
6.93156e-10
-9.67988e-10
-2.48871e-10
-3.94546e-10
-4.54679e-10
-1.829e-10
-3.65173e-10
-1.77811e-10
-6.59515e-11
-7.10512e-11
-1.39866e-10
2.09702e-10
-1.53459e-10
-4.91043e-10
2.56989e-10
-9.80703e-11
-9.03164e-11
-3.2611e-10
-5.98196e-11
-2.589e-10
-1.23732e-10
-7.27497e-12
-1.04943e-10
-9.01608e-11
1.12428e-10
-1.45256e-10
-2.18104e-10
1.27201e-10
2.94239e-10
-1.28276e-10
-6.08111e-11
-1.87325e-10
-6.53986e-10
-4.75526e-10
-8.09598e-10
-1.06373e-09
5.78335e-10
-1.08186e-09
-1.31143e-09
-1.08766e-09
-1.59976e-09
1.00999e-09
-1.72227e-09
-8.14177e-10
-1.81624e-09
1.11045e-09
-1.84628e-09
-4.62275e-10
-1.63102e-09
9.51454e-10
-1.5407e-09
-1.71858e-10
-1.30412e-09
5.87331e-10
-8.84024e-10
-5.10978e-11
1.01716e-10
-2.16856e-10
-6.17207e-10
7.00794e-11
-8.87368e-11
-1.2352e-10
9.10798e-11
1.3794e-10
-1.672e-10
2.01054e-10
5.90834e-11
-4.65306e-11
6.32536e-11
6.2133e-11
4.09394e-11
-8.60345e-11
-4.75109e-11
1.51688e-10
7.80654e-11
-1.87296e-10
-7.68855e-11
2.27054e-10
1.1607e-10
-2.27359e-10
-8.76308e-11
2.76984e-10
-2.15928e-10
-6.12645e-11
-1.51821e-10
-5.14951e-10
2.87186e-10
-1.02296e-10
-5.64092e-10
2.87208e-10
-4.18121e-11
-4.64969e-10
2.1719e-10
-2.82821e-10
1.08444e-10
8.32244e-11
-1.75867e-10
-8.89765e-11
-1.01204e-10
1.42461e-10
-2.75707e-10
-2.48501e-10
1.62007e-10
-3.34059e-10
-2.4958e-10
1.70436e-10
-3.16275e-10
-2.07107e-10
-2.46953e-10
-9.40178e-11
-2.66878e-10
-4.07651e-10
2.82321e-10
-1.59187e-10
2.43935e-11
-1.70069e-11
-1.15079e-10
1.20412e-10
-3.45254e-10
-8.0789e-11
1.46444e-10
-5.58349e-11
-1.15635e-10
-5.02344e-11
-1.92081e-10
-1.47579e-10
-9.72619e-11
-1.15376e-10
-1.13305e-10
1.14679e-10
-2.17655e-10
-7.18962e-11
7.76104e-11
9.91029e-11
-4.06291e-10
2.46e-10
1.35905e-10
-2.01814e-10
7.60354e-11
-3.36888e-10
-1.21097e-10
-1.98112e-10
-2.19494e-10
1.86184e-10
5.1316e-11
-1.94128e-10
-1.64469e-10
1.62512e-10
7.32586e-11
1.75656e-10
-2.25242e-10
1.42848e-10
-3.70157e-11
-6.68422e-11
1.16377e-10
3.34827e-11
-1.13617e-10
1.09495e-10
4.24705e-11
-1.12188e-10
6.92487e-11
4.33463e-11
7.85813e-11
-8.16819e-11
4.10211e-11
5.03524e-11
4.29313e-11
1.42073e-11
-2.08539e-11
2.75984e-11
2.00681e-11
4.09001e-12
-5.53748e-12
5.57317e-12
1.00811e-11
9.86919e-12
-1.33243e-11
1.30656e-11
-5.52108e-12
4.44284e-12
-5.58365e-12
1.0009e-12
1.00087e-11
6.161e-12
-9.52514e-12
9.52595e-12
-1.71965e-12
1.6429e-11
-2.16949e-11
1.39292e-11
-2.50303e-12
9.1103e-12
-1.90211e-11
4.31132e-11
-1.67739e-11
-5.67559e-11
-6.35953e-11
-2.85767e-11
3.56601e-11
-1.18096e-11
2.82837e-11
-4.73741e-11
2.04559e-11
-1.09317e-13
7.12233e-11
-3.96847e-11
2.07139e-11
5.98976e-11
1.31118e-10
6.64094e-11
5.04241e-11
-1.60457e-10
-5.53491e-12
1.11224e-10
5.21825e-11
9.13738e-11
-1.18128e-10
-3.44591e-12
-1.40828e-11
-1.30403e-11
1.71839e-11
7.8493e-12
8.9955e-13
-2.66331e-12
-3.43085e-12
1.74835e-12
-1.24089e-13
-1.30746e-12
3.01214e-13
2.0295e-12
-1.85086e-13
-1.83184e-13
-5.77563e-13
8.21401e-13
-9.91382e-14
-2.48895e-13
6.79514e-13
-5.16926e-13
-1.23005e-13
-3.97397e-13
-4.85874e-13
9.06779e-13
1.09821e-13
-5.75593e-13
-2.20957e-13
5.63141e-13
1.40172e-12
-2.34559e-12
4.62512e-13
5.90427e-13
1.8071e-12
-2.80666e-12
4.45074e-12
-2.04993e-12
-8.55603e-12
1.07136e-11
9.5557e-12
-9.90634e-12
-3.79559e-12
6.36202e-12
-9.88323e-13
4.37324e-12
-4.32136e-12
2.36007e-12
3.55675e-13
9.38988e-12
-1.81579e-12
1.73937e-12
-3.92282e-12
6.37281e-12
-6.00876e-13
7.59352e-12
-2.46652e-11
1.79389e-12
-7.23902e-12
5.57351e-12
7.46496e-12
-5.28183e-13
5.44974e-13
3.52492e-12
-1.38592e-12
-8.85118e-13
2.04317e-12
-7.51522e-13
-1.76904e-14
-1.19534e-12
-3.00456e-13
-4.36222e-13
-2.22461e-13
2.06922e-13
-5.51771e-13
-6.57692e-13
4.60942e-13
4.47459e-13
-1.96731e-13
-8.30458e-14
-2.99929e-13
2.752e-14
-2.06756e-13
8.87644e-14
1.12133e-13
-1.91434e-13
-8.75155e-14
-2.58565e-14
-1.74847e-13
8.10479e-14
-3.47997e-14
-2.50037e-13
5.50796e-14
1.41989e-13
1.95448e-13
2.06326e-13
-1.97939e-14
-5.3662e-13
7.69721e-13
-4.41624e-13
9.04515e-13
-1.49344e-13
-7.97347e-13
1.03236e-12
-1.5282e-12
3.7151e-13
-2.03481e-13
3.21079e-13
8.21677e-13
-4.0739e-13
-2.58363e-13
-4.0039e-16
-3.84693e-14
-1.01347e-13
-9.46959e-14
-2.40662e-14
-4.56172e-14
1.44444e-14
2.16611e-14
-2.92686e-14
-7.0063e-14
4.30293e-14
3.75946e-14
-5.64427e-14
1.73236e-13
2.10174e-13
-1.46419e-13
-3.07313e-13
-7.6586e-14
2.37437e-13
-2.16336e-13
6.10785e-14
-1.07983e-13
6.86121e-15
5.15485e-14
-1.68734e-14
4.05667e-14
-2.09717e-15
-1.48438e-14
-1.1295e-14
-1.27293e-15
3.93512e-17
-4.94218e-15
-5.13073e-14
-3.83322e-15
1.38731e-14
-9.95459e-14
-1.03686e-14
1.48745e-15
-1.0416e-13
-2.78617e-14
6.61736e-15
2.55954e-14
1.68396e-13
1.32465e-14
-5.3426e-13
2.48388e-13
-8.51935e-15
2.35972e-15
-5.75499e-13
8.39168e-14
-9.71004e-14
-2.15502e-13
-4.43535e-14
-2.18954e-13
-2.11211e-13
2.37818e-15
-1.72989e-13
2.84736e-13
-8.35713e-13
1.58741e-13
4.40919e-12
-7.40341e-13
4.96899e-12
-2.39238e-12
2.95492e-12
-1.12283e-12
-1.37336e-11
7.81762e-12
2.69141e-11
-1.60291e-11
-1.56064e-11
1.01937e-11
-1.01978e-11
-1.21126e-10
1.8032e-10
-1.16234e-10
2.25369e-10
-1.78528e-10
-6.09669e-11
-8.23673e-11
1.1632e-10
-1.08992e-10
1.48786e-11
-1.60039e-11
4.34191e-11
-5.55699e-11
-4.62223e-11
1.3409e-11
-3.6506e-12
1.30085e-11
-1.80779e-11
2.10496e-12
1.46184e-12
-1.87277e-12
-1.5292e-12
1.84476e-12
2.84558e-12
-1.71853e-12
2.39456e-13
2.55003e-12
-2.06855e-12
-1.76355e-12
-4.88236e-13
1.20416e-13
6.48125e-13
6.63971e-13
-6.26095e-13
-5.67832e-13
-1.91182e-13
2.41582e-13
2.69099e-13
-1.99433e-13
-8.16767e-14
1.48873e-13
-1.17586e-13
-1.41228e-13
-1.55796e-14
3.73665e-14
-3.31522e-14
-7.06615e-14
7.088e-14
5.33208e-15
2.44973e-13
-1.3742e-13
3.71174e-13
-4.13883e-13
6.51291e-14
-3.91645e-13
1.38966e-12
-1.64747e-13
5.06694e-13
-2.96568e-13
-4.37323e-13
-1.18053e-13
-9.06509e-14
-1.55897e-13
-3.20539e-14
-4.29541e-14
-1.61401e-13
-8.84828e-15
-1.48104e-15
-5.56575e-14
3.51417e-15
-1.63336e-14
1.36589e-15
1.84601e-16
5.23337e-16
1.06497e-15
1.92268e-15
-6.45086e-16
1.10082e-15
-1.38638e-15
4.05698e-16
3.91649e-16
1.53881e-16
6.14134e-16
5.93675e-16
-1.99444e-16
-6.9016e-16
4.93194e-16
-9.20409e-16
7.00776e-16
-2.64887e-16
8.80675e-16
3.01924e-15
1.495e-16
5.21246e-15
-9.63512e-15
-2.85287e-16
-1.92871e-16
-3.82158e-16
1.40505e-15
-1.83944e-15
-9.201e-16
-6.15557e-16
3.30085e-16
-1.09719e-15
1.51397e-15
8.51641e-16
4.18274e-16
-1.56016e-15
7.28841e-16
6.67624e-16
2.87169e-16
-3.83901e-16
6.42346e-16
-1.19625e-16
-2.07011e-15
1.14266e-15
3.53092e-16
-1.31143e-14
4.86979e-15
-7.47579e-15
1.30222e-14
-2.42454e-14
7.4731e-15
-1.67597e-14
2.01521e-14
-6.67644e-14
-8.07185e-16
4.74596e-14
-4.59291e-15
-2.50669e-13
1.33868e-13
6.30179e-14
-4.71871e-13
3.52299e-13
5.17628e-13
-6.48696e-13
-1.54281e-13
-4.28535e-13
8.78617e-15
1.01774e-13
-4.25865e-13
5.096e-14
2.22973e-13
1.44751e-12
6.64687e-13
-1.14634e-12
-1.39249e-12
-1.42655e-12
7.93154e-12
-1.25664e-12
-3.80054e-12
2.39208e-11
-1.24163e-11
-5.11326e-12
8.70232e-12
-2.6666e-11
-2.5855e-11
2.31389e-11
2.96376e-12
-9.46945e-12
1.01805e-10
-1.21668e-11
-4.22262e-11
2.38338e-10
7.48926e-11
-5.46158e-11
3.1544e-11
6.38888e-10
-6.23849e-11
-3.69709e-10
1.06859e-09
-6.43629e-10
7.68259e-10
7.99115e-10
1.40099e-10
9.97064e-10
1.54799e-09
-7.41881e-11
8.27102e-10
1.62659e-09
2.17286e-10
5.90715e-10
1.05686e-09
1.70472e-10
1.39031e-09
1.38725e-09
-6.85593e-10
3.52537e-10
-7.15629e-10
1.58496e-09
1.68438e-10
-8.56229e-10
1.29034e-09
1.94099e-10
-2.75677e-10
2.39217e-10
1.19055e-09
-2.9745e-09
8.49284e-10
1.09599e-09
1.26844e-09
-1.75749e-11
-4.64324e-10
-9.02053e-10
1.55754e-09
-2.61689e-10
-4.11372e-10
-5.73559e-10
-2.66577e-10
-3.364e-10
-3.58752e-10
-1.67317e-10
-1.68448e-10
-1.04751e-09
1.81998e-10
4.49094e-10
-7.61388e-10
-2.71589e-10
-2.63403e-10
-4.29375e-10
-2.25359e-10
-2.89554e-10
-2.67465e-10
-9.69264e-11
-1.36035e-10
-6.31716e-10
-1.00157e-10
3.10948e-10
-4.26653e-10
1.8288e-10
-2.32822e-10
-1.55122e-10
-2.11397e-10
8.73932e-11
-1.52147e-10
-1.50504e-10
1.41834e-10
-2.36681e-10
-3.40189e-10
2.23639e-10
9.25336e-11
9.03486e-11
-1.37239e-10
9.61907e-11
1.90131e-11
-9.69028e-11
-4.76814e-11
2.80178e-10
-8.34237e-11
-1.32928e-10
-6.92113e-10
-6.09841e-10
1.35498e-09
-6.08496e-10
4.22545e-10
-1.07841e-09
-1.2813e-09
-1.21331e-09
1.9758e-09
9.05107e-10
-1.03918e-09
-1.93763e-09
-1.92614e-09
2.64252e-09
1.18202e-09
-8.50428e-10
-1.93451e-09
-2.42801e-09
2.93186e-09
1.2419e-09
-5.00504e-10
-2.00643e-09
-2.30578e-09
2.59756e-09
1.36472e-09
-3.44867e-10
-1.46858e-09
-1.52849e-09
1.99101e-09
8.50427e-10
9.91871e-10
-7.90226e-10
-6.93308e-10
-9.5945e-11
1.16028e-09
-1.03652e-09
3.4684e-10
4.11525e-10
-3.65174e-10
3.81441e-10
-3.42147e-10
1.56248e-10
2.96484e-10
-2.7633e-10
2.3107e-10
1.73563e-10
-2.79414e-11
-7.58097e-11
1.61228e-10
1.43499e-10
9.55061e-11
4.28836e-11
-2.99418e-11
3.76974e-11
4.01867e-11
2.83822e-11
2.57853e-11
-1.58595e-11
2.3021e-11
-1.91123e-12
4.65014e-12
1.00422e-11
1.30033e-11
-1.5527e-14
1.53986e-12
2.13785e-12
-1.22726e-12
1.50245e-13
1.60575e-12
-7.39824e-13
1.56725e-14
-4.51703e-13
7.49398e-13
-5.31877e-13
-7.42826e-13
-5.48657e-13
5.17577e-13
3.21555e-13
2.40147e-13
-4.23572e-13
-2.75049e-13
-2.84764e-13
1.24409e-13
-2.56023e-13
-1.76837e-13
-2.21547e-14
-8.6428e-14
-6.37984e-14
-2.99101e-14
-6.72959e-14
-1.59741e-14
-2.75944e-15
-5.90293e-14
-1.18135e-14
-1.83172e-16
1.08219e-16
-1.92114e-16
-2.72855e-15
4.46108e-16
-2.28893e-15
1.02892e-15
9.52775e-16
-1.59911e-15
7.67059e-16
-9.91137e-17
5.22618e-16
3.93519e-16
-5.04551e-16
1.22268e-16
2.24943e-16
-5.85363e-16
1.6915e-15
-3.51817e-16
-1.09662e-15
3.47506e-15
-1.63856e-16
-2.33193e-15
-9.19882e-17
-1.26837e-15
1.16549e-15
2.82449e-15
-2.59649e-17
5.5246e-15
5.09713e-15
-3.50752e-14
1.1978e-14
9.84229e-15
1.83613e-14
-1.45921e-13
3.16815e-15
9.05134e-14
1.40694e-14
1.90646e-13
-5.51285e-13
-9.04163e-14
3.07554e-13
3.47374e-13
-1.47141e-13
-4.9792e-13
-5.3001e-14
1.46383e-13
-2.76928e-13
-3.63189e-13
7.02534e-14
4.22584e-13
2.54572e-12
-3.41521e-12
9.83677e-12
-2.06462e-12
3.69817e-12
-8.92536e-12
2.2919e-11
-2.22855e-11
7.14736e-11
6.35642e-11
-5.08972e-11
-6.12221e-11
2.82025e-10
-1.98044e-10
7.60498e-10
-3.67866e-10
6.79066e-10
-7.89673e-10
9.53102e-11
-2.75824e-10
3.08042e-10
6.3297e-10
4.40863e-10
-2.37164e-11
4.77278e-10
5.76032e-10
8.67318e-11
1.32609e-09
4.17414e-10
1.62396e-09
1.61254e-10
4.24433e-10
9.60661e-10
8.9179e-11
1.40359e-09
9.81125e-10
-5.73033e-10
4.66507e-10
2.39215e-09
1.29893e-10
2.68953e-10
1.87428e-09
-3.86386e-10
-1.37693e-09
1.90162e-09
4.17969e-11
-2.97538e-10
-8.4166e-11
-2.49381e-10
-6.70742e-10
1.91263e-09
-2.30062e-10
-3.1002e-10
1.75197e-09
-5.55155e-10
-1.02391e-09
1.25915e-09
-4.74573e-10
-7.06885e-11
-7.35254e-10
-5.39843e-10
-1.04978e-11
-4.88034e-10
-4.78281e-10
-3.55157e-11
-5.08362e-10
3.50087e-11
-3.4509e-10
1.67628e-10
-1.51711e-10
-1.7919e-10
-3.04827e-10
-1.94707e-10
-1.17146e-10
-2.06542e-10
-1.77964e-10
-1.4568e-10
-1.50562e-10
-9.0682e-11
-6.22255e-11
-5.60646e-10
6.96102e-11
2.40317e-10
-4.49266e-10
-2.33856e-10
-1.10347e-10
-2.53212e-10
-1.71509e-10
-1.76693e-10
-9.97542e-11
-1.60273e-11
-6.34228e-11
-7.40082e-11
1.46996e-10
-6.21615e-11
-3.23851e-10
1.39262e-10
-1.70468e-11
-8.86658e-11
-2.29809e-10
1.69512e-11
-1.44379e-10
2.41678e-10
-3.60353e-10
-3.86275e-10
2.75141e-10
4.0364e-10
4.72441e-11
-1.92256e-10
3.06762e-10
3.01873e-10
-3.42234e-10
-2.14799e-10
-5.99517e-10
-9.31155e-10
3.36446e-10
-7.05344e-10
-1.45749e-09
-1.02179e-09
6.47472e-10
-5.82941e-10
-1.72278e-09
-1.28805e-09
9.53911e-10
-4.60791e-10
-1.70886e-09
-1.21366e-09
7.93939e-10
2.63841e-10
-7.75511e-10
-1.32432e-09
-9.33797e-11
-6.40697e-11
-2.96037e-10
-4.66859e-11
-8.5019e-11
-1.5186e-10
-1.38126e-10
-2.44215e-12
-1.00246e-10
1.96932e-10
-1.09204e-10
-5.67589e-11
-1.69095e-10
-6.3934e-11
-1.28846e-10
1.91389e-10
-1.36661e-10
-1.46641e-10
2.79796e-11
1.77779e-10
-1.43014e-10
4.3007e-11
1.22015e-10
-1.08553e-10
5.21289e-11
4.45632e-11
-3.32361e-11
2.90058e-11
1.53409e-10
1.28717e-10
-1.31848e-10
-1.05716e-10
4.82636e-11
-9.43116e-11
1.33219e-10
6.62378e-11
7.12302e-11
9.81979e-12
3.58227e-11
-8.385e-12
3.39731e-11
1.85961e-11
1.3061e-11
6.29606e-11
3.2815e-11
-4.13574e-11
-1.2572e-11
1.08729e-11
3.67685e-11
2.78909e-11
1.7408e-11
7.48574e-12
3.51048e-11
1.19874e-11
-1.9643e-11
9.59847e-11
3.56946e-11
-2.57898e-11
-7.07854e-11
-4.00806e-11
5.15868e-11
3.2652e-11
5.18258e-11
-1.57306e-11
1.02012e-11
1.14379e-12
-2.25108e-12
-2.33392e-12
8.41975e-13
-2.28451e-12
-2.98975e-12
2.64111e-12
3.81411e-13
-1.77872e-13
-8.39633e-13
-1.47804e-12
1.24133e-11
-9.76829e-12
-3.80724e-13
2.30062e-11
6.84249e-11
-1.76137e-11
-6.57529e-11
4.34696e-12
1.95452e-12
2.26267e-11
-1.26935e-12
3.02145e-12
1.55653e-13
2.28565e-11
-1.11402e-11
1.50518e-12
6.79099e-11
-1.08287e-12
-4.76254e-11
3.65416e-12
1.86174e-10
1.78956e-11
-2.1415e-11
-1.14745e-10
1.05373e-10
-2.23501e-10
7.03277e-10
-2.88493e-10
4.89743e-11
-3.58385e-10
1.02064e-10
3.45859e-10
9.65793e-11
1.58774e-10
3.98555e-10
1.06751e-10
1.01355e-09
7.04909e-11
-3.39626e-10
2.40226e-10
4.9417e-11
1.48744e-10
5.75162e-10
1.04029e-09
-1.2964e-10
6.33524e-10
-1.30395e-09
1.18984e-09
3.34153e-09
-2.37561e-10
-3.25352e-09
6.42787e-10
5.67797e-09
-4.6883e-09
-4.42614e-10
1.41677e-10
5.23436e-09
-4.0052e-09
-7.28056e-10
1.9829e-10
2.50221e-09
-1.66671e-10
2.50102e-10
2.06359e-09
-2.41118e-10
-2.18329e-10
2.72575e-09
-3.55695e-10
-2.44938e-09
2.26392e-09
6.41478e-11
-9.70165e-11
-1.9154e-10
-3.03419e-10
-1.67667e-10
2.23763e-09
-5.09532e-10
-3.26357e-10
1.55836e-09
-1.40518e-10
-1.99992e-09
2.57467e-09
-7.31094e-10
-1.70022e-10
-1.63936e-09
-7.47544e-10
-8.75827e-11
-1.31947e-09
-6.89489e-10
-1.70246e-10
-9.78345e-10
-8.9629e-10
7.68848e-11
-3.88958e-10
1.32928e-10
-5.54687e-10
-2.93919e-10
-2.54016e-10
7.2661e-12
-2.84273e-10
-3.42299e-10
1.37947e-10
-2.23108e-10
-3.60432e-10
1.21302e-10
-3.57665e-10
1.13486e-10
-3.27951e-10
2.72774e-10
-1.81767e-10
-1.20722e-10
-2.92678e-10
-1.70912e-10
-9.82177e-11
-2.10154e-10
-1.16758e-10
-1.37276e-10
-9.87346e-11
-1.07808e-10
-6.70348e-11
-3.64216e-10
4.71594e-11
1.5616e-10
-2.43944e-10
7.1752e-11
-8.59517e-11
-1.06075e-10
1.08738e-10
-1.18769e-10
2.29734e-10
-4.63648e-10
1.87115e-10
1.49476e-10
1.70024e-10
-3.97877e-10
1.37939e-11
-1.64051e-10
-2.29811e-11
-8.88309e-11
-5.77778e-10
9.14962e-10
-4.20043e-10
-9.49056e-10
1.64406e-09
7.14173e-10
-1.18601e-09
-8.00945e-10
-9.78088e-10
1.845e-09
1.39213e-09
-2.05449e-09
-1.15361e-09
-6.97619e-10
-1.23954e-09
-2.62774e-09
1.96334e-09
1.62347e-09
-3.09037e-10
-8.63808e-10
1.81489e-09
-2.52863e-09
1.18897e-09
-3.68956e-11
2.86476e-10
-2.66936e-10
-1.35443e-09
1.06275e-09
1.32868e-10
-1.17714e-10
-2.53263e-10
2.01215e-10
2.55828e-10
-2.66864e-10
4.30379e-10
1.1767e-10
-8.73139e-11
1.83622e-10
4.18503e-11
7.40189e-11
-1.55128e-10
3.58372e-10
-1.59594e-10
1.2214e-10
-2.93444e-10
5.06074e-10
-2.60753e-10
1.16546e-10
-2.88112e-10
5.25465e-10
-2.3176e-10
3.80064e-12
-1.51156e-10
3.88329e-10
-1.24428e-10
-2.16228e-10
-1.89228e-10
-1.56221e-10
-3.72206e-10
1.61042e-10
-1.30148e-10
-5.2526e-10
2.11075e-10
-5.60834e-11
-5.60329e-10
1.9282e-10
-4.23562e-10
1.25037e-10
1.62793e-10
-1.76562e-10
-1.39197e-10
-2.70597e-10
1.86386e-10
-1.78995e-10
-4.04928e-10
1.65125e-10
-1.81143e-10
-3.22857e-10
3.87532e-11
-8.21183e-11
-1.63717e-10
-1.21297e-10
-9.49581e-11
-1.4287e-10
-1.96368e-10
-1.02592e-10
9.5544e-11
-3.89323e-11
-9.50131e-12
-9.23587e-11
-5.5576e-11
3.18198e-11
-7.52451e-11
-3.63602e-11
4.08535e-11
-5.83897e-11
-1.00435e-10
-8.33649e-11
-4.47485e-11
-1.09271e-10
4.40215e-11
-7.01866e-12
4.729e-11
-1.67658e-10
4.60014e-11
1.42561e-10
-3.21102e-10
1.57052e-10
-3.22228e-10
7.19801e-11
-4.94462e-10
-1.88531e-10
-3.71755e-10
-2.56404e-10
1.59431e-10
6.64315e-11
-5.49033e-11
-3.5949e-10
2.56561e-10
-3.61562e-10
6.52988e-11
1.99134e-10
3.17836e-10
-9.03612e-11
-2.24177e-10
2.20099e-10
8.85923e-11
2.10359e-10
1.81062e-10
-6.22975e-11
-1.43501e-10
2.44835e-10
1.04192e-10
3.43092e-11
-1.24689e-10
1.67249e-10
1.94476e-10
-1.92489e-10
-2.32497e-10
3.34701e-10
9.68636e-11
-7.1539e-11
5.16858e-11
1.17466e-10
4.81225e-11
-1.28897e-10
-1.184e-10
6.73097e-11
-2.48103e-10
-1.49286e-10
3.782e-10
7.64887e-11
-2.68331e-10
-1.62425e-10
4.21575e-10
-2.3772e-11
-1.45812e-10
-9.91818e-11
-1.82373e-10
-1.36389e-10
-1.05604e-10
1.65747e-10
-8.02278e-11
2.31759e-10
-2.84736e-11
2.06218e-10
1.29463e-10
-8.62293e-10
1.49529e-10
-1.5446e-10
-2.03865e-09
5.04936e-10
1.74944e-09
-9.23558e-10
-2.56815e-10
9.49711e-10
-1.00554e-09
-6.94273e-11
1.39364e-09
-1.34431e-09
2.95719e-10
6.74088e-10
-1.76767e-11
-4.78606e-10
4.93025e-10
-1.75373e-10
-1.4348e-10
-6.76166e-11
2.70899e-10
-2.15549e-10
5.13664e-11
-2.50195e-10
2.49982e-10
7.25327e-11
-1.98257e-10
1.73337e-10
-1.1838e-10
5.20109e-11
6.7352e-11
3.07437e-11
-3.33119e-11
2.12806e-10
1.81621e-10
-1.52002e-10
-1.75074e-10
8.19624e-11
-1.37333e-10
1.90452e-10
7.7724e-11
9.84992e-11
-4.07272e-10
1.52731e-10
-3.66916e-10
2.27904e-10
-5.58279e-10
-1.12628e-10
1.76503e-10
-5.5205e-10
-2.23593e-10
-9.74198e-11
2.58219e-10
-1.84447e-10
-9.05241e-11
-2.06841e-10
2.34362e-10
8.26743e-11
-1.56238e-10
6.4109e-11
4.12837e-11
-8.36336e-12
8.19166e-11
1.66842e-10
-9.41439e-11
-9.05061e-11
2.94703e-10
3.59111e-10
-2.79609e-10
-2.92288e-10
2.05225e-11
1.30294e-10
1.58087e-10
-1.42007e-11
-5.14796e-11
2.49061e-10
1.82053e-10
4.95543e-12
7.5682e-11
3.4725e-11
6.06488e-11
4.04469e-11
9.68246e-11
1.27686e-10
-8.81802e-11
3.1993e-10
3.09764e-10
-2.8381e-10
-6.65526e-11
1.74039e-10
1.87314e-10
2.513e-11
-7.37524e-11
1.9234e-10
1.24624e-10
-1.07373e-11
5.23053e-11
1.23659e-11
5.9664e-11
5.44323e-11
1.02023e-10
9.04922e-11
-8.05468e-11
3.35438e-10
2.01024e-10
-2.42099e-10
-1.17899e-10
1.79327e-10
1.89879e-10
8.413e-11
-7.89328e-11
1.21761e-10
4.02971e-11
2.58245e-11
-3.39181e-12
8.82801e-11
-5.14777e-11
3.29159e-10
7.88795e-11
-1.97999e-10
6.86183e-10
1.26278e-10
-5.79216e-11
-4.2538e-10
-3.39607e-10
3.24989e-10
3.32113e-10
3.68687e-10
-1.68074e-10
3.32833e-11
-7.85391e-11
2.69256e-12
-4.02997e-11
7.72433e-11
-4.2982e-11
-1.60071e-10
-3.01326e-10
-7.10225e-10
-5.37845e-11
8.26723e-10
-2.15386e-11
-3.11244e-10
-9.03474e-11
-2.3756e-10
1.9157e-12
2.56827e-10
-7.9367e-11
1.64799e-12
-6.51463e-11
2.38459e-10
-2.00797e-10
1.65411e-11
-7.69286e-11
-4.78612e-11
3.06807e-10
-3.17951e-10
-9.3698e-11
-6.57984e-11
4.87237e-11
-1.78166e-10
1.24562e-10
1.01104e-10
2.91411e-10
-6.08902e-10
-1.72657e-10
3.93837e-10
1.97414e-10
2.1657e-10
1.48029e-10
-7.26501e-10
6.37338e-10
6.43578e-11
7.75371e-10
-6.96139e-10
-4.8557e-10
2.27398e-11
5.28085e-10
-2.84335e-10
-2.81915e-10
6.70433e-10
-7.23113e-10
1.3336e-10
-8.81973e-11
6.91246e-11
-3.23612e-10
-1.42449e-10
-1.52154e-11
2.1211e-11
3.18885e-12
3.0887e-12
1.19412e-11
-7.95417e-12
-6.30864e-13
5.9028e-12
-1.31465e-12
-3.67927e-13
5.84192e-13
-1.09066e-12
-7.40255e-13
-2.13808e-12
-3.13941e-13
-3.22203e-13
-1.35878e-14
-3.32123e-13
-1.22595e-13
-5.24486e-14
-4.12928e-14
-3.36103e-13
1.37614e-13
-1.10798e-13
-5.90596e-13
-1.20754e-14
2.82413e-13
-1.67547e-14
-5.79344e-13
-6.11189e-13
5.08817e-13
8.4376e-14
-3.98124e-13
-7.63846e-13
-8.65961e-13
-1.47736e-12
-7.30871e-13
-6.32457e-13
9.90973e-14
1.8331e-11
-1.34818e-11
-1.92756e-12
-5.02837e-11
-1.07607e-10
4.9753e-11
-1.56717e-11
2.2345e-10
-2.00209e-10
-3.36316e-11
-8.48491e-11
-6.94186e-13
-6.82967e-12
3.79898e-12
1.4276e-12
-3.03819e-11
2.24591e-13
-1.12113e-12
-7.57225e-12
-5.93111e-14
1.05799e-13
-3.23474e-13
7.67566e-14
-3.2889e-13
-1.80085e-14
1.1668e-13
-3.97539e-13
-6.59613e-13
-1.09494e-12
-1.34862e-12
4.14195e-14
-2.87798e-14
1.43721e-12
1.99524e-12
6.71223e-13
-4.49863e-13
-2.71765e-13
1.16517e-12
-1.27236e-13
1.31499e-12
-2.9825e-13
2.82374e-13
-1.0782e-13
-1.07496e-13
-8.30654e-13
4.64055e-13
-3.36248e-14
-4.0314e-14
1.73555e-13
1.4191e-14
1.07263e-14
2.31394e-15
-5.37016e-14
-7.74524e-15
1.75505e-15
7.5007e-16
-4.7186e-16
2.5232e-16
8.22599e-16
3.22073e-16
6.53987e-16
-9.53515e-17
2.21902e-15
-1.34233e-15
1.6334e-15
9.62919e-17
-2.18735e-16
6.27057e-15
7.83493e-15
-2.2385e-14
1.99662e-14
4.58805e-15
3.77208e-15
-4.47762e-14
8.11823e-15
2.38804e-14
9.70719e-14
1.68685e-13
8.53515e-14
2.95686e-15
2.36763e-14
-2.94046e-14
-6.24856e-15
-3.55958e-14
-1.52368e-13
1.36788e-14
-1.00062e-14
3.55963e-14
-6.79439e-14
-2.09634e-16
4.68414e-15
4.67936e-16
-2.83988e-15
1.18475e-15
-1.2108e-14
2.23203e-15
-4.84542e-15
-9.12557e-14
4.72804e-14
7.89948e-16
2.6792e-15
-1.68472e-14
5.71507e-15
2.19188e-15
1.46319e-15
4.67666e-16
-2.0693e-15
1.1025e-14
-1.65889e-14
-8.56406e-16
1.6286e-15
-1.2055e-15
6.08482e-15
3.21329e-14
-7.42596e-14
4.12181e-14
-2.91236e-13
1.59054e-13
-7.75252e-15
9.17875e-14
-6.54194e-13
-9.50508e-15
2.87115e-13
5.17133e-14
-1.94046e-14
9.40638e-14
-1.55949e-12
7.85875e-13
1.75486e-13
6.07773e-13
-1.32561e-12
1.83953e-14
2.10021e-13
-3.32576e-14
1.72443e-13
5.99476e-14
3.14414e-14
3.24321e-15
-1.58505e-15
9.23042e-14
2.28065e-13
2.71822e-14
-3.78738e-13
6.27612e-14
1.11273e-13
3.16802e-14
1.40589e-13
1.52186e-13
-2.70697e-13
3.88851e-13
-5.5931e-13
-2.6986e-13
-4.65098e-13
-1.05112e-12
1.31053e-12
-1.66793e-12
-3.13718e-13
-1.57441e-12
-7.22656e-13
2.90915e-13
-1.49823e-12
6.63249e-13
1.37128e-12
-2.5335e-12
2.17099e-13
-1.49977e-12
1.24367e-12
-5.28813e-12
-1.71294e-12
5.48475e-12
-2.442e-11
2.83396e-11
2.90893e-12
4.72467e-11
-4.14246e-11
-1.34774e-12
1.48213e-11
5.19007e-13
-5.48815e-13
1.54636e-12
-2.096e-12
3.48388e-13
-1.52772e-12
-1.54693e-13
-1.77069e-13
-5.89579e-15
2.5572e-12
-3.749e-12
-8.34356e-13
-1.68703e-12
4.39604e-13
-7.40097e-12
6.04287e-12
-3.51016e-12
2.83656e-11
-2.69505e-11
1.00442e-10
-8.94549e-11
5.00896e-12
-2.18414e-10
2.51737e-10
2.45161e-11
3.18413e-12
-6.47998e-11
7.0473e-11
4.16513e-12
3.46958e-12
2.22288e-11
1.75023e-12
5.08584e-13
-6.76736e-14
1.58023e-12
-3.10895e-12
3.24215e-12
2.54493e-13
1.40519e-12
-2.06846e-14
5.11976e-13
4.31029e-14
-1.00635e-12
6.68124e-14
-1.26106e-12
-1.16914e-11
1.30613e-11
-8.73096e-12
-7.67158e-12
2.65305e-11
-2.2561e-11
-1.94851e-12
-5.37346e-14
-8.93278e-12
-1.92457e-11
4.85855e-11
-1.40671e-10
1.48341e-10
-5.17364e-11
-1.60436e-10
-1.40273e-10
1.56203e-10
-6.42395e-12
-5.2634e-11
3.90485e-11
-2.22433e-10
1.11384e-10
6.08834e-11
3.65114e-10
-4.46178e-10
2.54679e-10
-3.45625e-10
-2.88754e-10
2.81356e-10
-1.24596e-10
-6.48539e-10
-3.86557e-10
3.63982e-10
5.06955e-10
-2.49009e-10
1.19932e-10
-5.72657e-10
3.41232e-10
9.3442e-10
4.43036e-10
-7.62967e-10
-1.01358e-09
-3.69808e-10
4.04275e-10
4.37825e-10
3.93115e-10
-3.27104e-10
-8.07406e-10
2.51417e-10
4.73819e-10
-1.01152e-09
6.71641e-10
-1.1936e-09
9.65368e-10
3.69386e-10
-7.95544e-10
9.52273e-10
7.89966e-10
-1.73602e-09
-7.72637e-10
9.0945e-10
-1.55076e-09
-2.22884e-10
-1.17049e-09
5.18977e-10
-5.62997e-10
-4.32548e-10
3.56528e-10
-9.83358e-10
5.74104e-10
-4.48398e-11
2.05219e-10
-6.45788e-10
-1.85345e-10
4.16363e-11
7.58002e-11
-9.74712e-11
-6.94797e-11
-9.41951e-11
2.65872e-10
3.79996e-10
-2.80276e-10
-2.89793e-10
6.39817e-11
9.53793e-11
1.35319e-10
-2.88076e-11
2.06005e-10
9.48103e-10
-1.2638e-09
4.34627e-10
-1.81889e-09
7.98446e-10
1.15459e-09
-4.92324e-10
-1.39864e-09
9.13792e-10
1.76256e-09
-2.60428e-09
-7.12232e-10
-1.5862e-09
9.99252e-10
-5.06196e-10
4.02995e-10
-1.17215e-09
-5.21681e-11
-4.816e-11
2.08535e-10
-7.11874e-10
-6.7643e-12
-2.71122e-10
-1.95265e-10
4.61458e-11
8.71056e-11
-7.58769e-11
-1.15744e-10
-9.075e-11
2.10058e-10
3.83869e-10
-2.40086e-10
-2.66736e-10
6.59583e-11
-3.81787e-11
1.1181e-10
7.04674e-11
2.15697e-10
1.05212e-09
-1.29355e-09
3.75865e-10
-1.94356e-09
7.36237e-10
-5.86855e-10
-1.6858e-09
9.80054e-10
2.1876e-09
-2.83856e-09
-2.50961e-10
1.25695e-09
-1.88309e-09
-8.81901e-10
-5.31852e-11
-1.28375e-10
4.48224e-10
-7.02072e-10
-2.49783e-11
-2.3711e-10
-2.72232e-10
-8.79631e-11
3.33054e-10
-1.8222e-10
-1.81442e-10
-2.41624e-10
-1.48893e-10
1.22862e-10
-3.6788e-11
-2.29138e-10
4.11558e-11
-3.2742e-10
1.04622e-10
7.02665e-11
1.02556e-10
-1.49214e-10
-1.74209e-10
-1.06554e-10
1.37735e-10
5.28372e-10
-1.79968e-10
-3.83584e-10
1.30058e-10
6.35422e-10
-4.24283e-10
-2.03461e-10
5.39069e-11
-2.93532e-10
5.42579e-10
-1.72896e-10
-5.53551e-11
-1.16969e-10
3.33809e-10
-1.07578e-10
-1.88469e-10
-7.51135e-11
1.56848e-12
2.06658e-10
-3.04259e-10
-2.05986e-10
7.20224e-12
3.14573e-10
-3.01927e-10
-3.71605e-10
4.31695e-10
-6.24238e-11
-2.60433e-10
-3.8995e-10
4.21606e-10
-7.31526e-11
-2.113e-10
-2.31643e-10
2.40231e-10
-5.77243e-11
3.48924e-10
-3.54933e-10
-5.15931e-10
3.10641e-10
2.75111e-10
2.44051e-10
2.64341e-10
-4.3458e-10
1.84995e-10
2.40698e-10
-3.9152e-10
2.40939e-10
-2.99179e-10
1.72901e-10
2.08681e-10
-9.07728e-11
-1.961e-10
-1.04665e-10
-1.01663e-10
-1.55301e-10
9.09466e-11
1.40217e-10
-6.60705e-11
-3.2489e-10
1.4908e-10
5.20901e-11
3.52125e-10
1.30909e-10
-4.92925e-10
-3.1219e-10
-1.48472e-09
5.0457e-10
-1.23205e-09
-3.90431e-10
1.57526e-09
6.95407e-10
-2.50375e-09
-6.08538e-10
-1.89129e-10
-1.51357e-09
1.00694e-09
-4.32658e-10
-6.77792e-11
2.6796e-10
-1.86341e-10
-2.09758e-10
-3.04519e-10
1.57613e-10
-2.30615e-11
6.56288e-11
-1.15192e-10
-2.15955e-10
-3.05301e-10
1.00978e-10
-7.77529e-11
1.74313e-10
-6.80353e-10
2.78492e-10
4.67805e-11
-4.51307e-10
1.40433e-10
8.12555e-11
-2.97391e-10
5.3157e-11
2.60253e-10
2.41931e-11
-3.49299e-10
1.46108e-10
-1.48917e-10
-3.11883e-10
2.63539e-10
-4.48735e-10
6.04715e-11
3.33702e-10
-6.75603e-10
4.62895e-10
1.42544e-10
2.73591e-10
3.50491e-11
2.21088e-10
-4.05487e-10
3.72416e-10
8.5573e-11
3.18333e-11
6.87358e-10
-7.1603e-10
1.27363e-10
8.09387e-10
-7.71781e-10
2.22512e-10
7.76058e-10
2.42494e-10
-6.26439e-10
4.89807e-10
2.80121e-10
4.44122e-10
-1.7226e-09
1.08799e-09
5.85479e-10
-1.52904e-09
1.20712e-09
6.62254e-10
-1.82044e-09
-3.98877e-10
-1.81571e-09
-2.04108e-09
8.43534e-10
-1.1432e-10
-9.57045e-10
-6.56022e-10
-1.87018e-10
-3.62669e-10
-1.3165e-10
-3.47629e-10
1.10043e-10
1.0157e-10
-3.17012e-11
6.66055e-11
-2.68124e-10
-1.78526e-10
-1.30484e-10
-2.9468e-10
-8.72346e-11
1.71687e-10
3.19744e-10