/*--------------------------------*- C++ -*----------------------------------*\
| =========                 |                                                 |
| \\      /  F ield         | OpenFOAM: The Open Source CFD Toolbox           |
|  \\    /   O peration     | Version:  5.0                                   |
|   \\  /    A nd           | Web:      www.OpenFOAM.org                      |
|    \\/     M anipulation  |                                                 |
\*---------------------------------------------------------------------------*/
FoamFile
{
    version     2.0;
    format      ascii;
    class       volScalarField;
    location    "60";
    object      pRest;
}
// * * * * * * * * * * * * * * * * * * * * * * * * * * * * * * * * * * * * * //

dimensions      [1 -1 -2 0 0 0 0];

internalField   nonuniform List<scalar> 
36178
(
8194.85
8194.79
8194.79
8194.88
8194.79
8194.66
8194.45
8194.19
8194.11
8194.46
8194.46
8194.52
8194.66
8194.81
8194.77
8194.77
8194.94
8194.92
8194.98
8194.92
8194.93
8194.92
8195.01
8194.95
8194.93
8194.91
8194.7
8194.53
8194.17
8193.8
8193.39
8193.08
8193.37
8193.93
8193.71
8193.92
8194.43
8194.63
8194.66
8194.72
8194.66
8194.78
8194.88
8194.96
8195.02
8195.05
8195.05
8195.05
8195.03
8195.02
8195.04
8194.99
8195.03
8194.98
8195.02
8195.02
8195.01
8195
8194.98
8195
8194.95
8194.95
8194.94
8194.87
8194.55
8194.39
8193.72
8193.21
8192.62
8192.15
8191.99
8192.89
8192.88
8193.74
8193.99
8194.46
8194.62
8194.85
8194.86
8194.89
8194.9
8195.01
8194.99
8195.03
8194.93
8194.92
8194.97
8195.04
8195.08
8195.1
8195.1
8195.08
8195.07
8195.11
8195.03
8195.09
8195.08
8195.08
8195.05
8194.99
8195.03
8195.04
8195.05
8195.18
8195.16
8195.15
8195.14
8195.11
8195.05
8195.17
8195.15
8195.2
8195.23
8195.26
8195.19
8195.14
8195.11
8195.09
8195.21
8195.17
8195.14
8195.12
8195.05
8195.11
8195.07
8195.03
8195
8194.99
8194.98
8194.99
8194.98
8194.99
8195
8195.01
8194.98
8194.99
8194.99
8195
8195
8194.99
8195
8194.99
8194.99
8194.98
8194.99
8194.99
8194.99
8194.99
8194.99
8194.99
8194.99
8195
8194.99
8194.99
8194.99
8194.99
8194.99
8194.99
8194.99
8194.99
8194.99
8194.99
8194.99
8194.99
8194.99
8194.99
8194.99
8194.99
8194.99
8194.99
8194.99
8194.99
8194.99
8194.99
8194.99
8194.99
8194.99
8194.99
8194.99
8194.99
8194.99
8194.99
8194.99
8194.99
8194.99
8194.99
8194.99
8194.99
8194.99
8194.99
8194.99
8194.99
8194.99
8194.99
8194.99
8194.99
8194.99
8195
8194.99
8195
8194.99
8194.99
8195
8195
8194.99
8194.99
8194.99
8194.99
8194.99
8194.99
8194.99
8194.99
8194.99
8194.99
8194.99
8194.99
8194.99
8194.99
8194.99
8194.99
8194.99
8194.99
8194.99
8194.99
8194.99
8194.99
8194.99
8194.99
8194.99
8194.99
8194.99
8194.99
8194.99
8194.99
8194.99
8194.99
8194.99
8194.99
8194.99
8194.99
8194.99
8194.99
8194.99
8195
8194.99
8194.99
8195.01
8195.02
8194.95
8194.82
8194.44
8194.44
8193.64
8193
8192.12
8191.29
8190.5
8189.35
8189.01
8189.5
8189.27
8191.84
8191.77
8193.09
8193.82
8194.05
8194.5
8194.66
8194.89
8194.92
8195.08
8195.16
8195.17
8195.13
8195.14
8195.11
8195.04
8195.04
8195.1
8195.14
8195.18
8195.2
8195.19
8195.19
8195.14
8195.11
8195.08
8195.04
8195.01
8195.01
8194.99
8194.99
8194.98
8194.99
8194.99
8194.99
8194.99
8194.99
8194.99
8194.99
8194.99
8194.99
8194.99
8194.99
8194.99
8194.99
8194.99
8194.99
8194.99
8194.99
8194.99
8194.99
8194.99
8194.99
8194.99
8194.99
8194.99
8194.99
8194.99
8195
8194.99
8195.02
8194.98
8194.7
8194.02
8192.71
8192.78
8190.82
8189.72
8188.86
8188.11
8186.37
8185.7
8185.29
8188.76
8188.82
8189.43
8190.01
8192.28
8193.49
8193.99
8194.35
8194.59
8194.77
8194.94
8194.95
8195.1
8195.18
8195.34
8195.32
8195.34
8195.36
8195.32
8195.35
8195.17
8195.21
8195.17
8195.22
8195.26
8195.28
8195.29
8195.29
8195.27
8195.25
8195.31
8195.23
8195.22
8195.17
8195.11
8195.06
8195.09
8195.03
8195.04
8195.01
8194.98
8195
8194.96
8194.99
8194.99
8195
8194.95
8194.99
8194.99
8194.99
8194.99
8194.99
8194.99
8194.99
8194.99
8194.99
8195
8195
8194.98
8194.81
8194.54
8193.34
8193.03
8191.5
8187.64
8186.51
8183.64
8182.58
8182.31
8181.97
8181.3
8180.7
8180.97
8185.46
8185.91
8186.23
8186.89
8190.66
8192.89
8193.65
8194.17
8194.5
8194.7
8194.84
8194.95
8195.08
8195.12
8195.24
8195.37
8195.33
8195.51
8195.45
8195.44
8195.49
8195.5
8195.48
8195.51
8195.58
8195.61
8195.62
8195.62
8195.57
8195.7
8195.54
8195.64
8195.62
8195.59
8195.53
8195.51
8195.48
8195.52
8195.53
8195.53
8195.77
8195.7
8195.66
8195.63
8195.61
8195.53
8195.63
8195.56
8195.64
8195.68
8195.62
8195.58
8195.65
8195.56
8195.82
8195.66
8195.58
8195.7
8195.46
8195.49
8195.39
8195.47
8195.35
8195.38
8195.39
8195.38
8195.35
8195.32
8195.3
8195.33
8195.35
8195.36
8195.36
8195.45
8195.42
8195.41
8195.33
8195.3
8195.29
8195.35
8195.27
8195.21
8195.15
8195.18
8195.1
8195.08
8195.08
8195.12
8195.16
8195.16
8195.27
8195.18
8195.15
8195.18
8195.17
8195.06
8195.04
8195.07
8195.07
8195.08
8195.08
8194.94
8194.98
8195.01
8195
8195.02
8195
8194.83
8194.95
8194.98
8195
8194.96
8194.86
8194.48
8194.85
8194.96
8195.01
8194.91
8194.9
8194.98
8194.99
8194.99
8194.99
8194.99
8194.99
8194.99
8195
8195
8194.98
8194.96
8194.97
8194.99
8194.99
8194.99
8194.99
8194.99
8194.99
8194.99
8194.99
8194.99
8194.99
8194.99
8194.99
8194.99
8194.99
8194.99
8195
8195
8195
8195
8195
8194.99
8195
8194.99
8194.99
8194.99
8194.99
8195
8194.99
8195
8194.99
8195
8194.99
8194.99
8194.99
8194.99
8194.99
8194.99
8194.99
8194.99
8194.99
8194.99
8194.99
8194.99
8194.99
8194.99
8194.99
8194.99
8194.99
8194.99
8194.99
8194.99
8194.99
8194.99
8194.99
8194.99
8194.99
8194.99
8194.99
8194.99
8194.99
8194.99
8194.99
8194.99
8194.99
8194.99
8194.99
8194.99
8194.99
8194.99
8194.99
8194.99
8194.99
8194.99
8194.99
8194.99
8194.99
8194.99
8194.99
8194.99
8194.99
8194.99
8194.99
8194.99
8194.99
8194.99
8194.99
8194.99
8194.99
8194.99
8194.99
8194.99
8194.99
8194.99
8194.99
8194.99
8194.99
8194.99
8194.99
8194.99
8194.99
8194.99
8194.99
8194.99
8194.99
8194.99
8195
8195
8195
8194.99
8194.99
8194.99
8194.99
8194.99
8194.99
8194.99
8194.99
8194.99
8194.99
8194.99
8194.99
8194.99
8194.99
8194.99
8194.99
8194.98
8194.99
8195.01
8195
8195.01
8195
8195.01
8195.02
8195.05
8195.03
8195.05
8195.02
8194.99
8194.98
8195.02
8195.03
8195.06
8195.08
8195.12
8195.16
8195.13
8195.26
8195.26
8195.15
8195.1
8195.14
8195.1
8195.15
8195.16
8195.2
8195.24
8195.22
8195.2
8195.32
8195.32
8195.2
8195.16
8195.22
8195.18
8195.24
8195.25
8195.25
8195.23
8195.23
8195.37
8195.25
8195.27
8195.27
8195.46
8195.41
8195.38
8195.35
8195.33
8195.33
8195.42
8195.45
8195.51
8195.53
8195.55
8195.5
8195.51
8195.52
8195.6
8195.55
8195.62
8195.58
8195.63
8195.67
8195.69
8195.69
8195.71
8195.61
8195.85
8195.64
8195.77
8195.6
8195.72
8195.71
8195.71
8195.67
8195.83
8195.73
8195.67
8195.59
8195.5
8195.44
8195.45
8195.36
8195.28
8195.22
8195.22
8195.28
8195.32
8195.32
8195.32
8195.34
8195.39
8195.39
8195.39
8195.61
8195.41
8195.42
8195.7
8195.63
8195.57
8195.51
8195.47
8195.5
8195.5
8195.55
8195.63
8195.69
8195.93
8196.11
8196.22
8196.19
8195.72
8195.63
8195.59
8195.66
8195.68
8195.74
8195.83
8195.89
8195.99
8195.92
8195.9
8195.81
8195.66
8195.56
8195.46
8195.4
8195.41
8195.46
8195.36
8195.38
8195.39
8195.3
8195.28
8195.33
8195.32
8195.26
8195.27
8195.22
8195.23
8195.19
8195.25
8195.23
8195.2
8195.25
8195.22
8195.26
8195.27
8195.35
8195.39
8195.48
8195.43
8195.44
8195.58
8195.56
8195.54
8195.62
8195.71
8195.79
8195.85
8195.88
8195.79
8195.65
8195.51
8195.54
8195.62
8195.62
8195.89
8195.63
8195.65
8196
8195.94
8195.87
8195.78
8195.76
8195.91
8196.07
8196.17
8196.45
8196.58
8196.61
8196.4
8196
8196.07
8195.97
8196.03
8196.11
8196.09
8196.14
8196.25
8196.16
8196.14
8196.12
8196
8195.95
8195.8
8195.93
8196.17
8196.07
8196.17
8196.45
8196.24
8196.27
8196.17
8196.16
8196.15
8196.28
8196.26
8196.45
8196.63
8196.9
8196.94
8197.2
8197.27
8197.19
8196.86
8196.85
8196.89
8196.4
8196.46
8196.12
8196.19
8196.09
8196.15
8196.07
8195.96
8195.78
8195.58
8195.58
8195.43
8195.39
8195.36
8195.33
8195.33
8195.33
8195.38
8195.37
8195.44
8195.47
8195.52
8195.57
8195.58
8195.53
8195.49
8195.46
8195.51
8195.69
8195.78
8195.84
8195.92
8196.08
8196.33
8196.3
8196.1
8196.29
8196.49
8196.69
8196.43
8196.81
8196.77
8196.73
8196.73
8196.75
8196.69
8196.89
8196.92
8197.17
8197.37
8197.62
8197.79
8197.51
8197.74
8197.71
8197.82
8198.18
8198.16
8198.17
8197.34
8197.4
8196.91
8196.92
8196.89
8196.79
8196.5
8196.51
8196.5
8196.45
8196.43
8196.34
8196.24
8196.54
8196.74
8197.12
8196.99
8197.26
8197.83
8197.49
8197.49
8197.19
8196.92
8196.77
8197.09
8197.04
8196.75
8196.54
8196.46
8196.69
8196.5
8196.45
8196.21
8196.22
8196.2
8196.14
8196.12
8196.18
8195.94
8196.06
8196.25
8196.42
8196.67
8197.05
8196.8
8197.16
8197.18
8197.11
8197.14
8197.38
8197.37
8197.45
8197.66
8197.87
8198.14
8198.28
8198.6
8198.63
8198.48
8198.64
8198.64
8198.72
8198.76
8198.17
8198.2
8198.17
8197.92
8197.4
8197.31
8197.23
8197.07
8197.01
8196.79
8196.7
8196.7
8196.38
8196.45
8196.39
8196.21
8196.11
8196.03
8195.89
8195.73
8195.66
8195.81
8195.94
8196.14
8196.41
8196.75
8197.13
8197.17
8197.85
8197.77
8197.86
8198.05
8198.12
8198.35
8198.62
8198.77
8199.1
8199.03
8199.32
8199.3
8199.35
8199.38
8199.38
8199.17
8198.77
8198.61
8198.67
8198.48
8197.92
8197.68
8197.79
8197.56
8197.04
8196.93
8197.34
8197.87
8198.44
8198.24
8197.88
8197.89
8197.88
8197.91
8198.63
8198.62
8198.59
8198.65
8198.81
8198.81
8199.06
8199.18
8199.43
8199.62
8199.71
8199.58
8199.74
8199.73
8199.86
8199.95
8199.38
8199.43
8199.16
8199.2
8199.37
8199.33
8199.16
8199.31
8199.88
8199.81
8199.93
8200
8199.98
8199.78
8199.56
8199.09
8198.47
8198.2
8198.82
8199.4
8199.01
8198.76
8198.68
8199.19
8199.11
8199.1
8199.13
8199.18
8199.24
8199.36
8199.54
8199.56
8199.82
8200.04
8200.19
8200.22
8200.25
8200.28
8200.36
8200.34
8200.26
8200.21
8200.09
8200.11
8199.76
8199.72
8199.34
8199.1
8198.85
8198.38
8198.71
8199.33
8199.76
8200.17
8200.2
8200.1
8200.03
8200.03
8199.98
8199.89
8199.94
8200.11
8200.15
8200.36
8200.44
8200.68
8200.64
8200.7
8200.74
8200.8
8200.89
8200.94
8200.84
8200.76
8200.78
8200.72
8200.24
8200.08
8200.55
8200.44
8200.66
8201.05
8200.88
8200.64
8200.57
8200.41
8200.28
8200.22
8200.2
8200.22
8200.33
8200.48
8200.71
8200.86
8201.16
8201.3
8201.43
8200.77
8200.83
8200.89
8201.47
8201.36
8201.27
8201.27
8201.06
8201.5
8201.46
8201.22
8201.26
8200.89
8200.66
8200.52
8200.54
8200.79
8200.91
8200.79
8200.7
8200.7
8200.79
8200.77
8200.96
8201.21
8201.29
8201.56
8201.58
8201.64
8201.73
8201.47
8201.37
8201.4
8201.25
8201.27
8201.09
8201.52
8201.99
8201.99
8201.9
8201.66
8201.56
8201.53
8201.5
8201.39
8201.35
8201.53
8201.51
8201.78
8202.01
8202.22
8201.93
8202.2
8202.16
8202.24
8202.32
8202.43
8202.42
8202.4
8201.82
8201.76
8201.91
8202.52
8203.06
8203.03
8202.81
8202.21
8201.7
8201.69
8202.21
8202.81
8202.44
8202.59
8202.38
8202.17
8202.13
8202.09
8202.08
8202.08
8202.05
8202.21
8202.35
8202.54
8202.85
8203.02
8203.4
8203.54
8202.7
8202.37
8202.5
8202.59
8202.68
8202.84
8202.41
8202.49
8202.6
8201.85
8201.84
8201.94
8201.64
8201.44
8201.24
8201.67
8202.13
8202.32
8203.17
8203.19
8203.19
8203.13
8203.12
8203.23
8203.19
8203.43
8203.53
8203.86
8203.91
8203.92
8203.6
8203.55
8202.88
8202.82
8202.71
8203.28
8203.63
8203.76
8203.59
8203.41
8203.41
8203.17
8202.77
8203.72
8203.72
8203.67
8203.66
8203.66
8203.69
8203.72
8203.77
8203.93
8203.95
8204.28
8204.21
8204.42
8204.4
8204.46
8204.46
8203.89
8203.92
8203.46
8203.36
8203.09
8203.04
8203.6
8203.42
8203.98
8203.96
8203.92
8204.39
8204.2
8204.22
8204.14
8204.13
8204.14
8204.22
8204.5
8204.69
8204.72
8204.88
8204.98
8204.75
8205.02
8204.97
8205.13
8205.2
8204.5
8204.55
8204.51
8204.55
8204.44
8203.92
8203.93
8204.36
8204.33
8204.15
8204.65
8204.46
8205.18
8205.02
8205.11
8205.16
8205.14
8205.02
8205.02
8205.19
8205.27
8205.42
8205.55
8205.64
8205.65
8205.67
8205.16
8205.06
8204.91
8204.82
8205.52
8205.38
8206.11
8206.14
8205.94
8205.55
8204.96
8204.48
8204.67
8205.4
8206.09
8207.26
8207.28
8207.21
8207
8206.9
8206.73
8206.51
8206.51
8206.48
8206.32
8206.57
8206.91
8207.12
8206.02
8206.07
8206.12
8206.34
8206.49
8206.17
8205.58
8205.51
8205.54
8206.27
8206.3
8207.47
8208.7
8208.46
8208.36
8208.12
8208.12
8208.03
8208.03
8207.81
8207.91
8207.94
8208.18
8208.62
8208.74
8209.22
8209.38
8207.92
8207.26
8207.59
8207.68
8207.86
8208.04
8207.39
8207.6
8207.95
8207.72
8207.68
8206.4
8206.58
8207.64
8207.46
8208.65
8208.43
8209.45
8209.47
8209.26
8208.96
8209.07
8209.01
8208.99
8209.3
8209.29
8209.64
8209.61
8210.1
8210.65
8210.78
8209.94
8210.7
8210.44
8210.43
8210.5
8210.56
8210.6
8209.3
8208.7
8209.57
8210.67
8211.47
8211.03
8210.8
8210.72
8210.74
8211.12
8211.28
8211.21
8211.1
8212.01
8212.05
8211.86
8211.56
8211.27
8210.14
8208.95
8208.92
8210.13
8209.77
8209.84
8210.91
8210.53
8210.15
8210.09
8210.02
8210.02
8210.29
8210.62
8210.87
8211.31
8211.7
8212.1
8212.1
8211.7
8212.14
8211.97
8212.04
8212.02
8212.64
8212.64
8212.67
8212.85
8212.96
8212.9
8212.89
8212.97
8212.67
8212.87
8212.66
8212.62
8212.31
8212.15
8211.94
8211.77
8211.41
8210.76
8210.3
8210.85
8211.89
8212.55
8212.57
8212.47
8212.48
8212.52
8212.44
8212.4
8212.55
8212.76
8212.93
8213.08
8213.28
8213.3
8213.45
8213.42
8213.45
8213.45
8213.46
8213.25
8213.29
8213.15
8213.3
8213.21
8213.04
8212.88
8212.78
8212.93
8213.25
8213.08
8213.03
8212.89
8212.83
8212.87
8212.96
8213.15
8213.12
8213.31
8213.38
8213.55
8213.74
8213.73
8213.69
8213.78
8213.73
8213.75
8213.75
8213.42
8213.47
8213.24
8213.23
8213.34
8213.07
8213.25
8213.21
8213.07
8212.92
8213.29
8213.3
8213.57
8213.45
8213.46
8213.31
8213.08
8213.04
8213.21
8213.25
8213.04
8212.71
8212.86
8213.12
8213.4
8213.42
8213.55
8213.76
8213.69
8213.58
8213.55
8213.59
8213.62
8213.63
8213.56
8213.8
8213.75
8214
8214.09
8214.32
8214.46
8214.5
8214.41
8214.01
8213.88
8213.99
8213.81
8213.79
8213.55
8213.4
8213.38
8213.4
8213.22
8213.21
8213.22
8213.22
8213.31
8213.27
8213.29
8213.25
8213.25
8213.27
8213.39
8213.44
8213.58
8213.61
8213.95
8213.98
8213.99
8214.01
8214.04
8214.09
8214.29
8214.45
8214.68
8214.88
8215.06
8215.08
8214.91
8214.67
8214.72
8214.4
8214.29
8214.29
8214.09
8214.09
8214.06
8214.05
8214.06
8214
8214.05
8213.75
8213.68
8213.68
8213.75
8213.79
8214.07
8214.47
8214.27
8214.26
8214.25
8214.26
8214.36
8214.33
8214.33
8214.63
8214.6
8214.5
8214.28
8213.97
8213.81
8213.6
8213.51
8213.58
8213.49
8213.66
8213.85
8213.87
8214
8213.97
8213.79
8213.79
8213.68
8213.58
8213.72
8213.74
8213.99
8214.06
8214.51
8214.35
8214.29
8214.29
8214.34
8214.38
8214.66
8214.71
8214.97
8215.02
8215.26
8215.42
8215.61
8215.64
8215.46
8215.21
8215.19
8215.12
8214.86
8214.87
8214.88
8214.86
8214.85
8215.07
8215.16
8214.92
8214.87
8214.57
8214.42
8214.22
8214.56
8215.08
8214.95
8214.95
8214.97
8214.98
8215.01
8215.11
8215.33
8215.44
8215.66
8215.75
8215.9
8216.06
8216.24
8216.22
8216.16
8215.96
8215.77
8215.8
8215.68
8215.66
8215.2
8215.18
8214.85
8214.85
8214.62
8214.55
8214.57
8214.28
8214.1
8213.87
8213.8
8213.93
8213.76
8213.93
8214.16
8214.56
8214.98
8215.17
8215.58
8215.49
8215.44
8215.38
8215.41
8215.51
8215.52
8215.69
8215.83
8215.89
8216.11
8216.13
8216.23
8216.31
8216.3
8216.25
8216.14
8216.06
8216.15
8215.98
8215.93
8215.88
8215.86
8215.85
8215.86
8215.88
8215.58
8215.22
8215
8214.81
8215.24
8215.59
8215.91
8215.86
8215.86
8215.79
8215.5
8215.42
8215.01
8215
8215.46
8215.75
8215.79
8215.81
8215.82
8215.96
8215.99
8216.05
8216.23
8216.24
8216.35
8216.38
8216.41
8216.44
8216.48
8216.46
8216.47
8216.42
8216.32
8216.38
8216.37
8216.4
8216.38
8216.18
8216.13
8216.13
8215.78
8215.76
8215.66
8215.63
8215.15
8215.16
8214.91
8214.86
8214.6
8214.37
8214.79
8215.21
8215.58
8215.85
8215.93
8216.16
8216.09
8216.05
8216.08
8216.1
8216.11
8216.21
8216.22
8216.35
8216.39
8216.44
8216.51
8216.49
8216.53
8216.55
8216.53
8216.55
8216.51
8216.5
8216.52
8216.44
8216.39
8216.35
8216.31
8216.29
8216.28
8216.28
8216.38
8216.34
8216.31
8216.16
8216
8215.76
8215.46
8215.36
8215.49
8215.87
8215.72
8215.74
8216.07
8216.11
8216.14
8216.14
8216.1
8215.95
8215.95
8216.12
8216.25
8216.36
8216.4
8216.48
8216.43
8216.41
8216.34
8216.23
8216.11
8216
8215.75
8215.4
8215.39
8215.72
8215.98
8216.16
8216.16
8216.3
8216.28
8216.23
8216.23
8216.24
8216.26
8216.3
8216.32
8216.42
8216.45
8216.46
8216.49
8216.55
8216.55
8216.59
8216.6
8216.62
8216.62
8216.62
8216.55
8216.53
8216.54
8216.51
8216.53
8216.45
8216.46
8216.44
8216.46
8216.34
8216.32
8216.37
8216.16
8216.17
8216.14
8216.12
8215.93
8215.95
8215.76
8215.57
8215.22
8215.01
8215.03
8214.81
8214.56
8214.31
8214.38
8214.43
8214.41
8214.35
8214.34
8214
8214
8214.22
8214.25
8214.61
8214.84
8215.23
8215.22
8215.57
8215.88
8216.07
8216.23
8216.23
8216.38
8216.4
8216.42
8216.44
8216.45
8216.49
8216.51
8216.53
8216.58
8216.58
8216.62
8216.64
8216.66
8216.69
8216.68
8216.69
8216.63
8216.62
8216.62
8216.63
8216.6
8216.59
8216.57
8216.58
8216.57
8216.58
8216.5
8216.5
8216.43
8216.44
8216.44
8216.44
8216.42
8216.51
8216.64
8216.62
8216.63
8216.64
8216.65
8216.65
8216.64
8216.64
8216.63
8216.63
8216.69
8216.7
8216.65
8216.58
8216.57
8216.5
8216.45
8216.47
8216.41
8216.41
8216.36
8216.36
8216.3
8216.35
8216.25
8216.23
8216.26
8216.26
8216.19
8216.22
8216.34
8216.42
8216.4
8216.5
8216.52
8216.6
8216.56
8216.51
8216.48
8216.41
8216.43
8216.38
8216.28
8216.28
8216.29
8216.38
8216.47
8216.47
8216.47
8216.47
8216.48
8216.5
8216.51
8216.54
8216.54
8216.56
8216.6
8216.6
8216.64
8216.67
8216.7
8216.73
8216.76
8216.75
8216.76
8216.72
8216.71
8216.72
8216.72
8216.71
8216.71
8216.71
8216.7
8216.7
8216.69
8216.8
8216.8
8216.8
8216.81
8216.81
8216.8
8216.79
8216.79
8216.79
8216.78
8216.78
8216.78
8216.78
8216.8
8216.74
8216.75
8216.76
8216.72
8216.72
8216.66
8216.57
8216.54
8216.47
8216.48
8216.41
8216.36
8216.4
8216.47
8216.43
8216.5
8216.56
8216.58
8216.56
8216.52
8216.51
8216.51
8216.62
8216.57
8216.59
8216.57
8216.57
8216.58
8216.59
8216.6
8216.58
8216.62
8216.63
8216.67
8216.69
8216.73
8216.76
8216.79
8216.81
8216.82
8216.83
8216.83
8216.83
8216.83
8216.87
8216.85
8216.89
8216.88
8216.88
8216.87
8216.87
8216.87
8216.83
8216.84
8216.84
8216.81
8216.8
8216.8
8216.77
8216.73
8216.7
8216.63
8216.61
8216.51
8216.52
8216.59
8216.54
8216.61
8216.62
8216.68
8216.67
8216.62
8216.58
8216.68
8216.67
8216.66
8216.62
8216.55
8216.56
8216.51
8216.51
8216.56
8216.62
8216.67
8216.67
8216.75
8216.71
8216.7
8216.71
8216.7
8216.69
8216.67
8216.68
8216.73
8216.71
8216.76
8216.76
8216.8
8216.84
8216.87
8216.9
8216.92
8216.94
8216.94
8216.86
8216.9
8216.89
8216.92
8216.91
8216.9
8216.9
8216.9
8216.9
8216.89
8216.9
8216.86
8216.87
8216.84
8216.84
8216.81
8216.79
8216.75
8216.72
8216.66
8216.65
8216.71
8216.67
8216.72
8216.73
8216.72
8216.73
8216.8
8216.76
8216.79
8216.79
8216.79
8216.78
8216.77
8216.77
8216.78
8216.75
8216.81
8216.8
8216.84
8216.86
8216.9
8216.93
8216.96
8217
8217
8217.01
8217
8216.97
8216.97
8216.97
8216.97
8216.97
8216.97
8216.92
8216.94
8216.92
8216.93
8216.93
8216.93
8216.94
8216.85
8216.85
8216.86
8216.86
8216.89
8216.95
8216.92
8216.93
8216.93
8216.93
8216.92
8216.95
8216.94
8216.94
8216.91
8216.93
8216.93
8216.9
8216.9
8216.89
8216.87
8216.85
8216.83
8216.8
8216.76
8216.76
8216.8
8216.83
8216.84
8216.82
8216.84
8216.91
8216.9
8216.89
8216.9
8216.86
8216.8
8216.81
8216.79
8216.84
8216.89
8216.92
8217.03
8217.06
8217.08
8217.22
8217.31
8217.36
8217.39
8217.42
8217.36
8217.27
8217.22
8217.19
8217.14
8217.11
8217.1
8217.09
8217.09
8217.07
8217.08
8217.04
8217.05
8217.05
8217.04
8217.04
8217.03
8217.01
8217
8217.01
8216.96
8216.93
8216.93
8216.83
8216.92
8216.93
8216.89
8216.83
8216.81
8216.82
8216.84
8216.86
8216.85
8216.79
8216.78
8216.84
8216.91
8217.06
8217.18
8217.14
8217.22
8217.2
8217.08
8217.24
8217.11
8217.01
8216.88
8216.67
8217.16
8217.17
8217.25
8217.19
8217.18
8217.15
8217.14
8217.12
8217.12
8217.09
8217.09
8217.05
8217.09
8217.05
8217.03
8217.05
8217.04
8217.04
8217.03
8217.02
8216.98
8217.02
8217.01
8217.01
8217
8216.98
8217.01
8216.96
8216.95
8217
8216.99
8216.98
8216.96
8216.97
8216.97
8216.96
8216.95
8216.93
8216.93
8216.91
8216.89
8216.87
8216.92
8216.93
8217
8217.01
8217.05
8217.1
8217.14
8217.14
8217.13
8217
8217.04
8216.5
8215.66
8215.63
8215.42
8215.31
8215.26
8215.28
8215.42
8215.56
8215.64
8216.43
8216.87
8217.07
8217.12
8217.15
8217.15
8217.16
8217.15
8217.15
8217.13
8217.14
8217.15
8217.16
8217.16
8217.18
8217.14
8217.14
8217.13
8217.07
8217.07
8217.08
8217.07
8217.08
8217.07
8217.06
8217.03
8216.99
8216.95
8216.93
8216.98
8217.03
8217.06
8217.03
8217.09
8217.07
8217.09
8217.07
8217.12
8217.06
8217.1
8217.03
8216.85
8216.44
8215.8
8215.06
8214.81
8214.65
8214.45
8214.47
8214.51
8214.56
8214.59
8214.8
8215.03
8214.64
8214.65
8214.56
8214.54
8214.48
8214.93
8214.27
8214.25
8214.23
8214.06
8214.03
8214.02
8214.06
8214.1
8214.11
8214.09
8214.06
8214.03
8213.82
8213.86
8213.86
8213.85
8213.85
8213.88
8213.91
8214.33
8214.35
8214.57
8215.02
8215.23
8215.84
8216.44
8216.72
8216.83
8216.97
8217.05
8217.1
8217.13
8217.14
8217.14
8217.14
8217.11
8217.14
8217.14
8217.13
8217.09
8217.1
8217.11
8217.1
8217.09
8217.07
8217.06
8217.06
8217.06
8217.06
8217.06
8217.06
8217.08
8217.02
8217.06
8217.01
8217.02
8217.02
8217.02
8217.03
8217.05
8217.05
8217.02
8217.01
8217
8217
8217
8217.01
8217.01
8217.09
8217.09
8217.09
8217.1
8217.1
8217.1
8217.11
8217.12
8217.07
8217.06
8217.02
8217.01
8217
8217.01
8217.03
8217.05
8217.05
8217.11
8217.09
8217.08
8217.07
8217.06
8217.04
8217.05
8217.01
8217.03
8216.99
8217.01
8216.97
8216.98
8216.97
8216.98
8216.99
8217
8217.02
8217.01
8217
8217
8216.99
8216.99
8216.99
8216.97
8216.98
8216.98
8216.96
8217
8217.03
8217.06
8217.08
8217.09
8217.08
8217.11
8217.06
8217.07
8217.09
8217.09
8217.08
8217.09
8217.03
8217.04
8216.92
8217.04
8217.1
8217.17
8217.09
8216.98
8216.81
8216.77
8216.83
8216.46
8215.97
8215.32
8214.88
8214.63
8214.45
8214.09
8213.93
8213.79
8213.85
8213.44
8213.48
8213.49
8213.5
8213.53
8213.52
8213.52
8213.53
8213.5
8213.47
8213.43
8213.44
8213.14
8213.15
8213.2
8213.25
8213.28
8213.32
8213.31
8213.33
8213.67
8213.63
8213.76
8214.05
8214.19
8214.36
8214.76
8214.97
8215.47
8215.96
8216.48
8216.75
8216.84
8216.95
8217.02
8217.08
8217.12
8217.13
8217.13
8217.13
8217.13
8217.1
8217.12
8217.14
8217.09
8217.13
8217.08
8217.13
8217.07
8217.14
8217.16
8217.18
8217.19
8217.17
8217.16
8217.1
8217.07
8217.17
8217.11
8217.1
8217.09
8217.1
8217.1
8217.09
8217.07
8217.06
8217.04
8217.01
8217.02
8217
8217.01
8217.01
8217.01
8217.04
8217.06
8217.08
8217.08
8217.08
8217.08
8217.11
8217.06
8217.07
8217.08
8217.08
8217.09
8217.08
8217.07
8217.1
8217.05
8217.09
8217.03
8217.05
8217.07
8217.08
8217.02
8217.01
8216.92
8216.77
8216.65
8216.74
8216.16
8215.85
8215.62
8215.4
8215.01
8214.61
8214.5
8214.29
8213.92
8213.71
8213.61
8213.53
8213.21
8212.82
8212.77
8212.81
8212.82
8212.95
8213.02
8213.02
8212.98
8213
8213.07
8213.38
8213.44
8213.53
8213.86
8214.03
8214.04
8214.52
8214.54
8214.66
8215.07
8215.5
8215.9
8216.12
8216.58
8216.81
8216.85
8216.95
8217.01
8217.07
8217.11
8217.12
8217.12
8217.12
8217.12
8217.09
8217.1
8217.11
8217.07
8217.1
8217.09
8217.11
8217.13
8217.11
8217.11
8217.11
8217.12
8217.13
8217.14
8217.13
8217.12
8217.11
8217.1
8217.09
8217.09
8217.08
8217.07
8217.11
8217.11
8217.07
8217.11
8217.07
8217.08
8217.07
8217.11
8217.05
8217.06
8217.09
8217.04
8217.04
8217.07
8217.07
8217.07
8217.05
8217.04
8217.09
8217.03
8217.08
8217.04
8217.03
8217.03
8217.05
8217.04
8217.01
8217
8217.02
8217.05
8216.99
8217.01
8217.03
8217.05
8217.05
8217.04
8217.07
8217.07
8217.08
8217.08
8217.07
8217.07
8217.06
8217.05
8217.04
8217.01
8216.99
8216.95
8216.88
8216.91
8216.92
8216.91
8216.98
8216.87
8216.55
8215.83
8215.09
8214.69
8214.32
8213.91
8213.97
8214.5
8214.23
8214.24
8214.22
8214.25
8214.24
8214.26
8214.69
8215.16
8215.25
8215.68
8215.77
8216.19
8216.56
8216.7
8216.84
8216.88
8216.95
8217
8217.04
8217.07
8217.1
8217.11
8217.11
8217.11
8217.11
8217.08
8217.09
8217.08
8217.05
8217.1
8217.04
8217.07
8217.11
8217.13
8217.1
8217.11
8217.09
8217.09
8217.16
8217.16
8217.07
8217.12
8217.14
8217.11
8217.12
8217.14
8217.16
8217.18
8217.18
8217.16
8217.13
8217.11
8217.26
8217.17
8217.26
8217.29
8217.29
8217.26
8217.21
8217.07
8217.06
8217.07
8217.07
8217.08
8217.11
8217.1
8217.09
8217.09
8217.08
8217.08
8217.08
8217.08
8217.06
8217.06
8217.06
8217.08
8217.1
8217.07
8217.01
8217
8216.99
8217.03
8217.05
8217.04
8217.03
8216.99
8217
8217.03
8217.04
8217.06
8217.08
8217.08
8217.08
8217.07
8217.06
8217.03
8216.98
8216.97
8217.01
8217.04
8217.03
8217.04
8217.01
8217.06
8217.05
8217.05
8217.06
8217.08
8217.08
8217.08
8217.09
8217.08
8217.07
8217.07
8217.05
8217.05
8217.01
8217.03
8217.07
8217
8217.06
8216.99
8217.04
8217.12
8217.12
8217.09
8217.12
8217.19
8217.26
8217.31
8217.3
8217.25
8217.22
8217.34
8217.26
8217.39
8217.4
8217.37
8217.3
8217.22
8217.17
8217.09
8217.13
8217.17
8217.2
8217.21
8217.43
8217.43
8217.38
8217.29
8217.2
8217.16
8217.06
8217.11
8217.15
8217.18
8217.18
8217.25
8217.17
8217.36
8217.16
8217.1
8217.23
8217.14
8217.2
8217.18
8217.13
8217.14
8217.12
8217.11
8217.1
8217.09
8217.07
8217.09
8217.11
8217.09
8217.09
8217.09
8217.07
8217.05
8217.1
8217.05
8217.05
8217.09
8217.02
8216.99
8217.06
8216.99
8217.04
8217.03
8217.03
8217.04
8217.05
8217.04
8217.05
8217.04
8217.02
8217.01
8217
8216.99
8216.93
8216.97
8217
8217.02
8216.96
8217.05
8217.13
8217.03
8217.17
8217.04
8217.24
8217.32
8217.36
8217.38
8217.19
8217.12
8217.33
8217.14
8217.07
8217.21
8217.08
8217.08
8217.13
8217.13
8217.16
8217.13
8217.13
8217.13
8217.12
8217.11
8217.1
8217.09
8217.08
8217.04
8217.09
8217.01
8217.03
8217.07
8217.08
8217.05
8217.01
8217.06
8216.96
8217.07
8216.97
8217
8217.04
8217.05
8216.99
8216.93
8216.98
8216.97
8216.86
8216.89
8216.95
8216.93
8216.96
8216.94
8216.94
8216.96
8216.93
8216.95
8216.93
8216.91
8216.9
8216.88
8216.81
8216.86
8216.86
8216.96
8216.85
8217.02
8216.95
8217.09
8217
8217.03
8217.12
8217.15
8217.13
8217.09
8217.08
8216.98
8217.04
8216.99
8217.01
8217.01
8217.03
8217.08
8217.09
8217.12
8217.1
8217.11
8217.11
8217.09
8217.06
8217.07
8217.01
8216.97
8216.97
8216.96
8216.88
8216.91
8216.82
8216.89
8216.9
8216.73
8216.72
8216.86
8216.92
8216.92
8216.79
8216.8
8216.68
8216.87
8216.82
8216.79
8216.72
8216.69
8216.6
8216.66
8216.71
8216.73
8216.76
8216.62
8216.71
8216.78
8216.86
8216.72
8217.01
8216.86
8216.98
8216.81
8217.16
8217.19
8217.06
8217.21
8217.2
8217.18
8217.17
8217.12
8217.11
8217.08
8217.08
8217.01
8217.03
8217.01
8217
8217.04
8217.07
8217.02
8216.97
8216.96
8216.96
8216.99
8217.04
8217.04
8217.07
8217.07
8217.08
8217.06
8217.08
8217.08
8217.08
8217.07
8217.06
8217.06
8217.05
8217.04
8217.06
8217.05
8217.04
8217.04
8217.02
8217.01
8217
8217.04
8217.03
8217
8216.96
8216.96
8216.92
8216.93
8216.97
8216.98
8216.96
8216.99
8216.95
8216.99
8216.97
8216.95
8216.93
8216.95
8216.95
8216.91
8216.91
8216.95
8217.01
8217.03
8217.02
8217.03
8216.87
8216.89
8216.85
8216.96
8216.78
8216.68
8216.64
8217.24
8217.09
8216.93
8216.82
8216.72
8216.72
8216.78
8216.82
8216.74
8216.68
8216.6
8216.68
8216.61
8216.84
8216.79
8216.87
8216.88
8217.25
8217
8217.31
8216.97
8216.94
8217.21
8216.98
8216.96
8216.94
8216.9
8216.97
8216.94
8216.94
8217.38
8217.01
8217.03
8217.7
8217.2
8217.42
8217.18
8217.03
8216.89
8216.96
8216.88
8216.94
8217.01
8217.06
8217.27
8217.12
8216.76
8216.73
8216.51
8216.87
8216.64
8216.66
8216.7
8216.74
8216.47
8216.96
8216.69
8216.73
8216.83
8216.84
8217.07
8216.86
8216.91
8216.93
8217.06
8217.33
8217.14
8217.13
8217.03
8217.13
8217.3
8217.59
8217.65
8217.6
8218.27
8217.85
8218.05
8218.02
8217.86
8217.58
8217.24
8217.42
8217.23
8217.33
8217.66
8218.02
8218.9
8219.1
8218.14
8217.89
8217.82
8217.88
8218.11
8218.16
8218.11
8216.85
8217.04
8216.92
8216.62
8216.98
8217.41
8217.09
8217.22
8217.27
8217.21
8217.44
8217.77
8218.12
8218.21
8219.25
8218.65
8219
8218.93
8218.69
8218.21
8217.82
8218.04
8217.87
8218.34
8218.68
8219.75
8220.64
8220.65
8220.62
8219.86
8219.7
8220.05
8220.01
8218.16
8218.32
8218.57
8217.37
8217.5
8217.65
8217.48
8217.48
8217.88
8218.43
8219.23
8219.54
8220.91
8220.29
8220.5
8220.28
8220.08
8219.58
8219.42
8220.25
8220.75
8221.88
8222.87
8222.95
8222.65
8221.42
8221.5
8221.63
8221.72
8219.76
8219.98
8220.04
8218.4
8218.46
8218.16
8218.12
8218.82
8219.86
8220.85
8221.97
8221.64
8221.7
8221.01
8220.33
8220.15
8219.26
8219.14
8219.88
8220.96
8221.83
8222.26
8224.17
8223.36
8222.98
8223.23
8223.33
8223.07
8224.07
8223.89
8225.08
8226.38
8226.3
8225.59
8226.02
8224.54
8223.39
8222.34
8221.41
8221.75
8221.56
8220.98
8220.89
8220.87
8221.1
8221.04
8220.96
8221.02
8221.81
8222.02
8223.23
8223.48
8225.64
8225.67
8225.65
8225.24
8223.04
8223.06
8221.61
8221.73
8221.07
8221.05
8220.89
8219.86
8219.42
8219.33
8219.42
8220.45
8221.58
8222.77
8224.16
8224.44
8226.32
8225.4
8225.28
8223.05
8222.81
8222.85
8222.98
8222.19
8220.96
8221.08
8220.46
8221.57
8222.77
8224.14
8225.01
8224.99
8223.48
8224.57
8226.14
8226.28
8226.46
8225.02
8223.31
8223.05
8222.21
8223.54
8224.41
8226.14
8226.25
8226.45
8225.34
8225.35
8225.3
8225.22
8225.32
8226.56
8261.71
8261.71
8261.71
8261.71
8261.71
8261.71
8261.71
8261.71
8261.71
8261.71
8261.71
8261.71
8261.71
8261.71
8261.71
8261.71
8261.71
8261.71
8261.71
8261.71
8261.71
8261.72
8261.72
8261.72
8261.72
8261.72
8261.71
8261.71
8261.71
8261.71
8261.71
8261.71
8261.71
8261.71
8261.71
8261.71
8261.71
8261.71
8261.71
8261.71
8261.71
8261.71
8261.71
8261.71
8261.71
8261.71
8261.72
8261.72
8261.72
8261.72
8261.72
8261.72
8261.72
8261.72
8261.72
8261.72
8261.72
8261.72
8261.72
8261.72
8261.72
8261.72
8261.72
8261.72
8261.72
8261.73
8261.72
8261.72
8261.72
8261.72
8261.72
8261.72
8261.72
8261.72
8261.72
8261.72
8261.72
8261.72
8261.72
8261.72
8261.72
8261.72
8261.72
8261.72
8261.72
8261.72
8261.72
8261.73
8261.73
8261.73
8261.73
8261.73
8261.72
8261.73
8261.73
8261.73
8261.73
8261.73
8261.73
8261.73
8261.73
8261.73
8261.71
8261.72
8261.72
8261.72
8261.72
8261.72
8261.72
8261.72
8261.72
8261.72
8261.72
8261.72
8261.72
8261.71
8261.71
8261.72
8261.72
8261.72
8261.72
8261.72
8261.72
8261.72
8261.72
8261.72
8261.72
8261.72
8261.72
8261.72
8261.72
8261.72
8261.72
8261.72
8261.72
8261.72
8261.72
8261.72
8261.72
8261.72
8261.72
8261.72
8261.72
8261.72
8261.72
8261.72
8261.72
8261.72
8261.72
8261.72
8261.72
8261.72
8261.72
8261.72
8261.72
8261.72
8261.72
8261.72