/*--------------------------------*- C++ -*----------------------------------*\
| =========                 |                                                 |
| \\      /  F ield         | OpenFOAM: The Open Source CFD Toolbox           |
|  \\    /   O peration     | Version:  5.0                                   |
|   \\  /    A nd           | Web:      www.OpenFOAM.org                      |
|    \\/     M anipulation  |                                                 |
\*---------------------------------------------------------------------------*/
FoamFile
{
    version     2.0;
    format      ascii;
    class       volVectorField;
    location    "60";
    object      UHyper;
}
// * * * * * * * * * * * * * * * * * * * * * * * * * * * * * * * * * * * * * //

dimensions      [0 1 -1 0 0 0 0];

internalField   nonuniform List<vector> 
36178
(
(-0.00350344 0.020035 -0.0186462)
(0.000102934 0.0104374 -0.0123164)
(-0.00143236 0.00869152 -0.00825712)
(0.000786042 0.00597741 -0.00787293)
(0.0023304 0.00845404 -0.0115645)
(0.0023913 0.0147482 -0.0186088)
(0.00476525 0.0246671 -0.0228018)
(0.00265628 0.0241678 -0.0164063)
(0.00322135 0.0305328 -0.0196931)
(-0.000271015 0.0173815 -0.00983999)
(-0.00143639 0.0156722 -0.0103739)
(0.00127051 0.0143446 -0.0103823)
(0.000872068 0.016054 -0.014055)
(-0.000443321 0.0105035 -0.00861473)
(-0.00108366 0.0134886 -0.0116506)
(-0.0030605 0.0118931 -0.00798312)
(-0.00349381 0.00974589 -0.00787097)
(-0.00452532 0.00844939 -0.00533782)
(-0.00203783 0.00677326 -0.00564976)
(-0.00220444 0.0108788 -0.00847788)
(-0.00233031 0.00703689 -0.00731499)
(-0.00298881 0.00518214 -0.00415179)
(-0.000857417 0.00365518 -0.00414569)
(-0.000243747 0.0052482 -0.00604409)
(0.00139621 0.00544498 -0.00879425)
(0.00408707 0.00634083 -0.0118812)
(0.0053344 0.0106861 -0.0153568)
(0.00616899 0.0184743 -0.0252077)
(0.0108953 0.0347056 -0.0318149)
(0.00880762 0.0372114 -0.0270791)
(0.0066481 0.0313474 -0.0196456)
(0.00579001 0.0368663 -0.0194993)
(0.00041609 0.0361271 -0.0172205)
(0.000524507 0.0316741 -0.0148482)
(0.000178949 0.0352193 -0.0136686)
(-0.000329185 0.0312591 -0.0120045)
(-0.00043876 0.0272207 -0.0136486)
(-0.00135428 0.0150009 -0.00922452)
(-0.00345809 0.0154135 -0.00914377)
(-0.00175046 0.0141823 -0.00966142)
(-0.00743352 0.032629 -0.0193616)
(-0.0129344 0.041059 -0.0244984)
(-0.0208348 0.0470408 -0.0264848)
(-0.0275286 0.049696 -0.024013)
(-0.0298287 0.0473639 -0.017857)
(-0.0266168 0.0396071 -0.0103451)
(-0.0186432 0.0268689 -0.00398463)
(-0.0106444 0.0142373 -0.000643494)
(-0.00509193 0.00682022 -4.58908e-06)
(-0.00131138 0.00176521 0.000184675)
(-0.00162289 0.00213375 7.62817e-06)
(-0.00186729 0.00219895 -4.89126e-05)
(-0.00187593 0.0024339 -0.000115143)
(-0.00175576 0.00198379 -0.000418284)
(-0.00117039 0.00177117 -0.00017036)
(-0.00148958 0.00249258 -0.00122747)
(-0.00126545 0.00300317 -0.00228908)
(-0.00138401 0.00397564 -0.00343189)
(-0.000734353 0.00196073 -0.00256497)
(-1.68363e-05 0.000962167 -0.00160237)
(4.61388e-05 0.00255344 -0.00452795)
(0.00111741 0.00237382 -0.00547603)
(0.00226585 0.00147265 -0.00545198)
(0.00736309 0.00533587 -0.0124942)
(0.00813378 0.0110021 -0.0170104)
(0.00974301 0.0186648 -0.0305419)
(0.0174317 0.0433625 -0.039142)
(0.0153763 0.0538216 -0.0354959)
(0.011309 0.0488709 -0.0239654)
(0.00534318 0.0589178 -0.0197681)
(0.00998739 0.0916149 -0.0257236)
(0.00261385 0.0516189 -0.0214763)
(-0.00519625 0.0565459 -0.0174193)
(-0.00383124 0.0378443 -0.0112237)
(-0.00425063 0.0337548 -0.0110322)
(-0.00498422 0.0318647 -0.0137546)
(-0.0044119 0.0192363 -0.00952255)
(-0.00323125 0.0124871 -0.00558399)
(-0.00313936 0.0119346 -0.0059258)
(-0.00377089 0.0129303 -0.00672793)
(-0.00331982 0.0142423 -0.00931159)
(-0.00300708 0.00798835 -0.00449214)
(-0.0038168 0.00707378 -0.00454396)
(-0.00230911 0.00734251 -0.00513138)
(-0.00407713 0.0121039 -0.00743294)
(-0.0110896 0.0295381 -0.0167837)
(-0.0179926 0.0360284 -0.0206414)
(-0.0246577 0.0406504 -0.0199329)
(-0.0278062 0.0408254 -0.0149333)
(-0.0254523 0.0357674 -0.00811238)
(-0.0183481 0.0249655 -0.00230408)
(-0.0103274 0.0145559 -0.000370707)
(-0.0032816 0.00454501 0.000105289)
(-0.00363259 0.00498492 -0.000136524)
(-0.00347123 0.00426183 -0.000307143)
(-0.0027691 0.00408921 -5.95279e-05)
(-0.00392467 0.00615658 -0.00152345)
(-0.00412984 0.00736857 -0.00321121)
(-0.0032985 0.00760402 -0.00490699)
(-0.00575431 0.00923121 -0.00569619)
(-0.00640835 0.00916032 -0.00386963)
(-0.00602432 0.00782953 -0.00191822)
(-0.00451272 0.00561268 -0.000568692)
(-0.0049451 0.00766947 1.05466e-05)
(-0.00815079 0.0113873 -0.00205256)
(-0.00853843 0.012948 -0.00450062)
(-0.00707395 0.0121488 -0.00599806)
(-0.0042643 0.00995335 -0.00638863)
(-0.00562208 0.00990763 -0.00727498)
(-0.00566784 0.00841968 -0.00587819)
(-0.00647483 0.00796341 -0.00418882)
(-0.00432822 0.00705538 -0.00457821)
(-0.00536242 0.0079568 -0.00363061)
(-0.00502086 0.00736466 -0.00127371)
(-0.00716716 0.00908405 -0.00124677)
(-0.0070862 0.00984537 -0.00064933)
(-0.00566327 0.00795849 -4.68843e-05)
(-0.0050068 0.00659962 3.82462e-05)
(-0.00605414 0.00891784 0.000259055)
(-0.00510061 0.00804811 0.000935814)
(-0.00369003 0.00592864 0.00041673)
(-0.00297228 0.00446148 -4.66704e-05)
(-0.00250447 0.00306495 0.000133266)
(-0.00216846 0.00366178 0.000127838)
(-0.00211197 0.00295332 0.000158789)
(-0.00140002 0.00212041 6.52788e-05)
(-0.000721967 0.000836573 0.000190055)
(-0.000204259 0.000369697 9.88428e-05)
(-2.87293e-05 0.000137735 1.02146e-07)
(-4.60897e-07 0.000210755 6.8704e-05)
(-0.000127417 0.000214464 4.25536e-05)
(-9.34601e-05 0.000241089 0.000126912)
(-0.000295634 0.000471041 1.62422e-06)
(-0.000431238 0.000836972 -0.000614303)
(-0.000938184 0.00175987 -0.0015735)
(-0.00109726 0.00116012 -0.000854136)
(-0.000878442 0.00082125 -0.000257372)
(-0.000372142 0.00039986 -2.18053e-05)
(-0.00121282 0.00100103 -0.000339932)
(-0.000355819 0.000356792 1.62077e-05)
(-0.00105332 0.00085038 -9.82313e-05)
(-0.0017039 0.00225615 0.000115683)
(-0.000732232 0.00141081 -3.56427e-05)
(2.49335e-05 0.000207262 -9.13402e-05)
(0.000125958 -8.29731e-05 -7.81497e-05)
(0.000159244 -7.65254e-05 -5.19967e-05)
(7.92212e-05 -5.0068e-05 -3.39604e-05)
(0.00010107 -4.22424e-05 -2.48692e-06)
(5.43728e-05 -2.95311e-05 2.6852e-06)
(4.24059e-05 -2.37775e-05 2.19243e-05)
(9.25096e-06 -8.81441e-08 7.6985e-05)
(-6.21543e-05 9.1615e-05 1.6488e-05)
(-0.000142362 0.000254964 -2.89699e-05)
(-0.000155105 0.000135004 -9.77434e-06)
(-3.68991e-05 3.06344e-05 5.68688e-05)
(4.71979e-05 -2.67817e-05 1.72878e-05)
(6.25377e-05 -6.79193e-05 -4.91225e-05)
(8.61959e-05 -5.53806e-05 -1.7325e-05)
(0.000139766 -0.000112626 -6.14714e-05)
(4.03329e-05 -0.000128626 -2.91073e-05)
(0.000173088 -2.24022e-06 -2.97873e-05)
(0.000192819 -8.08447e-05 -0.000101226)
(0.000139774 -0.000137659 -8.11993e-05)
(0.000144134 -0.000106451 -6.62125e-05)
(8.79955e-05 -6.83663e-05 -3.51185e-05)
(4.11077e-05 -3.17697e-05 -1.14433e-05)
(4.29844e-05 -2.88524e-05 5.03299e-06)
(2.28338e-05 -1.9089e-05 1.20512e-05)
(9.20874e-06 -1.30834e-05 1.1133e-05)
(1.41919e-06 -8.89884e-06 3.30335e-05)
(-1.05925e-05 -2.80734e-06 7.57076e-05)
(1.03143e-05 -2.45239e-05 4.29416e-05)
(2.99992e-05 -3.26057e-05 1.58867e-05)
(4.23662e-05 -4.32955e-05 4.40844e-05)
(2.00007e-05 -3.50709e-05 5.48025e-05)
(2.19241e-05 -2.69081e-05 1.88478e-05)
(2.15464e-05 -1.69045e-05 5.70853e-06)
(6.1249e-06 -8.15452e-06 2.47846e-06)
(1.15034e-06 -2.48081e-06 8.0083e-07)
(1.02094e-06 -3.39509e-06 6.96022e-06)
(-1.85574e-06 -3.48628e-06 1.5536e-05)
(6.54587e-06 -9.02864e-06 1.01652e-05)
(7.50008e-06 -1.3824e-05 2.40196e-05)
(6.34895e-06 -1.10287e-05 7.78809e-06)
(2.26196e-06 -2.91136e-06 8.44374e-07)
(1.30094e-06 -4.45777e-07 9.3282e-07)
(-1.62556e-07 -2.59989e-07 -9.37429e-08)
(1.38652e-07 -2.95043e-07 1.08317e-06)
(-9.1952e-07 -9.32331e-07 2.73205e-06)
(-3.08549e-06 4.92099e-07 9.44075e-06)
(-1.56573e-05 3.15222e-06 2.59987e-05)
(-5.2692e-06 4.71736e-07 1.7978e-05)
(-1.05914e-05 -1.03995e-05 4.04171e-05)
(-2.43642e-05 2.58714e-06 4.52577e-05)
(-4.31985e-05 2.623e-05 9.13626e-05)
(-3.61441e-05 1.27338e-05 6.99202e-05)
(-5.99608e-05 6.05387e-05 9.73641e-05)
(-6.05009e-05 0.000148635 -4.33486e-05)
(1.08811e-05 0.000360276 -0.000132224)
(-0.000152364 0.000305693 -0.000120951)
(-0.000351996 0.00088772 -0.000333546)
(-0.00149356 0.00356673 -0.00211209)
(-0.00103819 0.00186011 -0.000620563)
(-0.000328909 0.000578268 5.76106e-05)
(0.000119577 7.26216e-05 4.43135e-05)
(0.000163433 -6.6983e-05 5.16865e-06)
(0.000194681 -0.000141364 -6.58714e-07)
(0.000132816 -0.000118184 2.5372e-05)
(6.37948e-05 -5.58766e-05 1.18335e-05)
(2.09834e-05 -1.76792e-05 -2.60681e-06)
(9.9609e-06 -8.86356e-06 -2.30025e-06)
(3.08791e-06 -3.3799e-06 -6.24349e-07)
(3.2331e-06 -3.45137e-06 5.68861e-07)
(8.52188e-06 -8.81304e-06 -1.14318e-06)
(2.30767e-05 -1.7286e-05 -1.91298e-06)
(3.80634e-05 -3.42573e-05 -7.91933e-06)
(4.60298e-05 -3.28912e-05 -8.67811e-06)
(2.64366e-05 -2.48203e-05 1.20141e-06)
(1.18475e-05 -1.10419e-05 -1.67652e-06)
(2.4077e-06 -2.80091e-06 -8.42817e-07)
(5.43119e-07 1.78583e-07 1.39595e-07)
(-1.73742e-07 -6.38771e-08 -2.05171e-08)
(-2.0365e-07 2.65482e-07 8.86099e-08)
(-1.37288e-07 1.2534e-07 -1.99385e-08)
(-8.92189e-08 8.33386e-08 -2.85798e-08)
(-6.11079e-08 6.35935e-08 -9.54931e-08)
(1.0325e-08 -2.95771e-08 -1.43028e-09)
(-9.87362e-08 7.83742e-08 2.57045e-07)
(5.52117e-08 -4.99355e-08 1.41886e-07)
(-9.3279e-08 8.6108e-08 -1.48219e-07)
(-2.31502e-07 1.16631e-07 -1.22008e-07)
(-1.01667e-07 1.92274e-07 -1.72347e-07)
(-5.26434e-08 9.22173e-08 -6.51455e-08)
(-1.87575e-08 6.89579e-08 -7.24327e-08)
(8.78874e-09 1.61521e-09 -4.97464e-08)
(-3.78037e-08 1.98102e-08 6.21247e-08)
(7.1797e-08 2.29235e-07 4.03484e-07)
(-1.26764e-06 -1.52886e-07 7.05423e-07)
(-1.10869e-06 2.38265e-06 4.85407e-06)
(-8.96206e-06 5.88654e-06 1.60501e-05)
(-2.43491e-05 1.74389e-05 3.66879e-05)
(-3.2844e-05 1.92654e-05 3.91871e-05)
(-5.42931e-05 2.14408e-05 7.32018e-05)
(-3.73543e-05 7.25074e-05 4.91367e-05)
(-6.43549e-05 4.27098e-05 0.000136949)
(-6.33348e-06 0.000165172 1.01309e-05)
(0.000466192 0.000411974 -0.0014886)
(0.000344303 1.13934e-07 -0.000821394)
(0.00215667 0.000278305 -0.00383425)
(0.0074972 0.00488123 -0.00867632)
(0.0100731 0.00955797 -0.0275996)
(0.0118712 0.0230564 -0.022907)
(0.0269895 0.0366632 -0.038876)
(0.0241529 0.060882 -0.0408057)
(0.0210266 0.076931 -0.039024)
(0.0156705 0.0730474 -0.0272003)
(0.0129995 0.0888799 -0.0262771)
(0.0170281 0.0942452 -0.0191175)
(0.0109394 0.0901599 -0.011178)
(0.0110843 0.091328 -0.0160507)
(0.00248962 0.0953824 -0.0134673)
(-0.00244321 0.09749 -0.0219341)
(-0.00184258 0.0675891 -0.0123976)
(-0.00857777 0.0433614 -0.0119684)
(-0.00583114 0.0294619 -0.00746853)
(-0.00569508 0.0287894 -0.0070928)
(-0.0080193 0.027737 -0.00987858)
(-0.00690173 0.0188682 -0.00747067)
(-0.00449464 0.0127688 -0.00460483)
(-0.00457669 0.0126403 -0.00554048)
(-0.0047865 0.0141397 -0.00682655)
(-0.00387167 0.00868988 -0.00477319)
(-0.00490364 0.0100801 -0.00665356)
(-0.0031871 0.0061994 -0.00448113)
(-0.00368631 0.00731017 -0.00494095)
(-0.00298966 0.00683624 -0.00430177)
(-0.00374675 0.0121251 -0.0066445)
(-0.0126874 0.0276545 -0.0154552)
(-0.0220962 0.0378301 -0.021888)
(-0.0321284 0.0456822 -0.0236901)
(-0.0401034 0.0502364 -0.02049)
(-0.0383188 0.0471148 -0.0123625)
(-0.0278252 0.0369519 -0.00436402)
(-0.0160421 0.0235264 -0.000261026)
(-0.0162844 0.0242866 -0.000855046)
(-0.00803568 0.0126877 -0.000278426)
(-0.00755058 0.0109306 -0.000336653)
(-0.00560845 0.00838701 -0.000594158)
(-0.00364853 0.00580659 -0.000835342)
(-0.000876618 0.00142179 -4.29302e-05)
(-0.00013452 0.000402816 2.73904e-05)
(0.000138977 0.000338157 -0.00020952)
(7.62914e-05 0.000144862 -0.000145887)
(0.000181169 -6.48631e-05 -0.000116758)
(9.7887e-05 -9.67021e-05 -5.27048e-05)
(9.79504e-05 -8.56522e-05 -4.1371e-05)
(5.3189e-05 -4.03577e-05 -9.67883e-06)
(4.70533e-05 -4.76634e-05 1.84041e-05)
(2.10515e-05 -2.21014e-05 3.34274e-05)
(1.90491e-05 -2.35987e-05 1.87204e-05)
(1.09267e-05 -1.08307e-05 2.34537e-06)
(4.04819e-06 -3.77773e-06 5.50422e-08)
(-1.99053e-07 -9.90344e-07 3.67301e-07)
(-8.82916e-08 -2.86708e-08 1.23218e-07)
(-2.95741e-08 2.00197e-07 1.08825e-07)
(-1.47143e-07 1.76047e-07 9.99774e-08)
(-1.57026e-07 1.1846e-07 2.25781e-08)
(-8.92927e-08 1.07176e-07 -1.41424e-08)
(-6.50618e-08 1.19304e-07 -5.79033e-08)
(-3.52352e-08 9.49867e-08 -5.20099e-08)
(-1.00889e-08 8.43986e-08 -1.13727e-07)
(2.24042e-08 -6.03266e-08 -2.64901e-07)
(1.39416e-07 1.82527e-07 3.92173e-07)
(1.32794e-07 3.02943e-07 1.68604e-06)
(-1.73497e-06 1.29905e-06 4.11316e-06)
(-2.86297e-06 8.98075e-06 1.72342e-05)
(-1.02492e-05 1.59257e-05 3.232e-05)
(-4.10125e-05 2.67184e-05 4.47353e-05)
(-5.8933e-05 2.9982e-05 6.19803e-05)
(-2.70698e-05 7.20941e-05 6.41278e-05)
(1.68155e-05 0.000138292 0.000200831)
(0.000594033 -0.000191531 -0.0012002)
(0.00329494 -0.000249495 -0.00548626)
(0.00837465 0.00644765 -0.00929805)
(0.0218716 0.0247593 -0.0351327)
(0.0131752 0.0300258 -0.0549321)
(0.0273288 0.0385607 -0.0334976)
(0.030095 0.0731721 -0.0423006)
(0.0251525 0.089678 -0.0365385)
(0.0163965 0.0834317 -0.0268557)
(0.0125948 0.105365 -0.0280888)
(0.0164429 0.127731 -0.024263)
(0.0121007 0.126575 -0.0164046)
(0.0124211 0.129486 -0.0147372)
(0.00847432 0.0928687 -0.00937517)
(0.00322132 0.10385 -0.013126)
(-0.00345098 0.0980885 -0.0170469)
(-0.0097639 0.0821119 -0.0175276)
(-0.0127349 0.0565773 -0.0146712)
(-0.0113868 0.0374333 -0.00908719)
(-0.00901911 0.0246548 -0.00735522)
(-0.00833294 0.019964 -0.00842206)
(-0.00606525 0.0166785 -0.0054703)
(-0.00605646 0.0134602 -0.00480321)
(-0.00385007 0.00959779 -0.00293538)
(-0.00433441 0.0109175 -0.0039335)
(-0.00450457 0.0131255 -0.00534538)
(-0.003866 0.0103728 -0.00485317)
(-0.00216399 0.00686195 -0.00314926)
(-0.00141081 0.00734332 -0.0046029)
(-0.00260142 0.00799406 -0.00491854)
(-0.0042084 0.00967076 -0.00692628)
(-0.00431644 0.00945566 -0.00672496)
(-0.00555482 0.00969946 -0.00636248)
(-0.00586176 0.0103036 -0.00777869)
(-0.00588786 0.0105618 -0.00716208)
(-0.0152125 0.025624 -0.016483)
(-0.0241538 0.0333613 -0.0194872)
(-0.0324394 0.0384988 -0.017811)
(-0.0324371 0.0373119 -0.0109964)
(-0.0243407 0.0305585 -0.00359736)
(-0.00917679 0.0120516 -0.00120381)
(-0.00472695 0.0075572 0.000749155)
(-0.00501101 0.00710956 0.000522946)
(-0.00410964 0.00676913 0.000388666)
(-0.00431045 0.00729923 0.000278217)
(-0.00289002 0.00593496 0.000427956)
(-0.00282931 0.00503882 6.21573e-05)
(-0.00221925 0.00394514 -0.000170159)
(-0.00175744 0.00242851 -5.19088e-05)
(-0.00224387 0.00321597 -0.000727594)
(-0.00226554 0.0046358 -0.00186868)
(-0.00147174 0.00277648 -0.000697409)
(-0.000665317 0.00165059 -0.000737867)
(-0.000412912 0.000848901 -0.000127665)
(-0.000501969 0.00132946 -0.000672346)
(-0.000233598 0.00159154 -0.00139218)
(0.000159327 0.000707532 -0.000715907)
(-3.46434e-05 0.000163047 -0.000162961)
(-0.000206857 0.00106058 -0.00150912)
(0.000440303 0.000993461 -0.00246385)
(0.000236625 0.000369708 -0.000950739)
(0.000163224 4.72643e-05 -0.000143556)
(9.1478e-05 -4.69624e-05 -4.75546e-05)
(9.27782e-05 -5.91592e-05 -2.84676e-05)
(9.18568e-05 -0.000109133 -2.44539e-05)
(0.000215066 -7.63545e-05 -7.44552e-05)
(0.000189376 0.000276115 -0.000211739)
(0.000168824 3.7435e-05 -6.30043e-05)
(7.08476e-05 -8.17709e-05 4.73125e-05)
(9.04656e-05 -4.11322e-05 -8.00942e-05)
(0.000131471 3.99062e-05 -0.000976526)
(0.0020742 0.000407419 -0.00501833)
(0.00580098 0.00305836 -0.0172335)
(0.011466 0.0106003 -0.0271994)
(0.0109897 0.0189599 -0.0457703)
(0.0259148 0.0315659 -0.0368845)
(0.0201427 0.0626676 -0.0503024)
(0.00884799 0.0668734 -0.0688501)
(0.0277075 0.0864773 -0.0457336)
(0.0367735 0.158611 -0.0623421)
(0.03154 0.195361 -0.0494992)
(0.014526 0.185485 -0.0333215)
(0.00996009 0.150423 -0.0168384)
(0.0143231 0.144597 -0.024714)
(0.0153681 0.154206 -0.0270079)
(0.0260423 0.162984 -0.018837)
(0.0107164 0.141292 -0.0153245)
(0.00327414 0.136952 -0.020558)
(0.000581319 0.112242 -0.0185111)
(-0.00317388 0.126349 -0.0353359)
(-0.0142108 0.0914243 -0.0294253)
(-0.0183777 0.0610706 -0.0214527)
(-0.018136 0.0442812 -0.0183604)
(-0.0100155 0.0303486 -0.00908732)
(-0.00874208 0.0160996 -0.00672783)
(-0.00826459 0.0141056 -0.00546839)
(-0.00710351 0.0124947 -0.00468053)
(-0.0051157 0.00966773 -0.00345863)
(-0.00512215 0.00988587 -0.00338731)
(-0.00366851 0.00944687 -0.00323042)
(-0.00304132 0.00901123 -0.00316184)
(-0.00124285 0.00622253 -0.00213768)
(-0.00150072 0.00726631 -0.0034708)
(-0.000622482 0.00732201 -0.00376612)
(-0.000347564 0.00606659 -0.00504796)
(-0.000306114 0.00530584 -0.00533002)
(-0.00189009 0.00702244 -0.00567756)
(-0.00148879 0.00701624 -0.00457639)
(-0.00802855 0.0168996 -0.0127804)
(-0.0170931 0.0222711 -0.0188337)
(-0.0328714 0.0271219 -0.0221963)
(-0.04286 0.030063 -0.0194979)
(-0.0390008 0.0283172 -0.0120425)
(-0.026125 0.0222384 -0.00462854)
(-0.00780549 0.00883951 0.000568215)
(-0.0085843 0.00953389 -0.0010076)
(-0.00818098 0.00867049 -0.000490981)
(-0.00710752 0.00859362 -0.00125144)
(-0.00835558 0.0093798 -0.00490616)
(-0.00711383 0.0090482 -0.0070112)
(-0.00493422 0.00773513 -0.00606663)
(-0.00350153 0.00760473 -0.0071686)
(-0.00342473 0.0046389 -0.00455737)
(-0.00516665 0.00493314 -0.00611146)
(-0.00714966 0.00537175 -0.00496664)
(-0.00725235 0.00597614 -0.00265236)
(-0.00542214 0.00482858 -0.00239637)
(-0.00532091 0.00449086 -0.00622532)
(-0.00241043 0.00378249 -0.0058015)
(-0.000796128 0.00362959 -0.00472412)
(-0.000599671 0.00470413 -0.00503208)
(0.00110624 0.00123821 -0.00361649)
(0.000188506 0.00100287 -0.00293627)
(0.000353225 -0.000463832 -0.00135504)
(0.000596495 -9.27581e-05 -0.00275483)
(-0.000433163 4.81705e-05 -0.00251711)
(-0.00398089 0.00131898 -0.00308418)
(-0.0056236 0.00182427 -0.0030537)
(-0.00805098 0.00533808 -0.0023705)
(-0.00891436 0.00740983 -0.0016307)
(-0.00891444 0.00643084 -0.00212355)
(-0.0094878 0.0063729 -0.00110505)
(-0.00870097 0.00709834 -0.000977635)
(-0.00745658 0.00850227 -0.000598425)
(-0.00701409 0.00978579 0.000445938)
(-0.00621929 0.00892719 0.000186988)
(-0.00665373 0.00924473 0.0013104)
(-0.00780167 0.0101003 -1.45232e-05)
(-0.00730826 0.00874206 -0.00028842)
(-0.00606446 0.00799342 -0.000426684)
(-0.00793061 0.0102047 -0.00281985)
(-0.00808069 0.010454 -0.00524816)
(-0.00620348 0.00882265 -0.00541543)
(-0.00580452 0.00909276 -0.00669377)
(-0.00640314 0.00825508 -0.00475069)
(-0.00849848 0.00993947 -0.00553461)
(-0.00931186 0.0103019 -0.00361401)
(-0.00802966 0.00925675 -0.00135713)
(-0.020075 0.0222891 -0.00357191)
(-0.0339639 0.0339415 -0.00728873)
(-0.0212259 0.0245685 -0.00124751)
(-0.00875683 0.0110299 0.000301037)
(-0.0249125 0.0318343 -0.00106623)
(-0.012808 0.0188721 0.000104784)
(-0.0032979 0.0058434 0.00054573)
(-0.00465971 0.00832286 0.000256456)
(-0.00362613 0.00723396 -0.000212787)
(-0.0024634 0.00563483 -0.000525627)
(-0.00214431 0.00358237 -0.000312267)
(-0.00291376 0.00463132 -0.00111016)
(-0.00291129 0.00555771 -0.0020241)
(-0.00221562 0.00412964 -0.000894129)
(-0.0063444 0.00970741 -0.00143092)
(-0.00848456 0.0137075 -0.00149418)
(-0.00809173 0.0133672 -0.00245843)
(-0.00230618 0.00522029 -0.00133087)
(-0.0033686 0.00567775 -0.0016192)
(-0.00317141 0.00647637 -0.00247555)
(-0.00247733 0.00415239 -0.00146399)
(-0.00288362 0.00406814 -0.00199606)
(-0.00452727 0.00686082 -0.00517022)
(-0.00415594 0.0060897 -0.00534132)
(-0.00369209 0.00676029 -0.00488776)
(-0.0023197 0.00433188 -0.0023417)
(-0.00220221 0.00371415 -0.00141021)
(-0.00244847 0.00400103 -0.00213054)
(-0.00423738 0.00732458 -0.0062227)
(-0.00359211 0.00681598 -0.00785467)
(-0.00241425 0.00633709 -0.00616885)
(-0.00158674 0.00367361 -0.00233797)
(-0.00128777 0.0027361 -0.00137686)
(-0.00143531 0.00296013 -0.00202303)
(-0.0025619 0.00671671 -0.00712878)
(-0.00151535 0.00675888 -0.0102112)
(0.000192687 0.00462349 -0.00652625)
(-0.000348384 0.0023779 -0.00203687)
(-0.00014919 0.00119208 -0.00176841)
(-0.000114889 0.00360214 -0.00579606)
(0.000118634 0.00979893 -0.016654)
(0.00276746 0.0109672 -0.0264144)
(0.0056447 0.00499087 -0.0132282)
(0.00158292 0.00197322 -0.00476814)
(0.000658893 0.000384482 -0.00250036)
(0.00240891 0.00246927 -0.00919078)
(0.00333138 0.00974749 -0.0176301)
(0.000725824 0.00410668 -0.00614427)
(0.000421038 0.0017189 -0.00291354)
(0.000173841 0.000500531 -0.00054246)
(-0.000227106 0.00186664 -0.00114401)
(-0.000695793 0.003446 -0.00243669)
(-0.000138537 0.00107793 -0.00053579)
(-0.000625086 0.00204753 -0.000468273)
(-0.00180268 0.00385076 -0.00108164)
(-0.00389334 0.00875559 -0.0037392)
(-0.00130872 0.00521784 -0.00345861)
(-0.00228664 0.0105782 -0.00994842)
(-0.00145036 0.00876159 -0.00780334)
(-0.000715971 0.00556505 -0.00445572)
(-0.00415692 0.00999837 -0.00467386)
(-0.00154165 0.00394459 -0.00125413)
(-7.99628e-05 0.000891912 -0.00023526)
(0.000189873 -3.40432e-05 -9.87822e-05)
(0.000293602 -0.00014783 -6.8322e-05)
(0.000221014 -0.000164302 -8.19143e-06)
(0.000120859 -8.98678e-05 3.97591e-05)
(5.88744e-05 -6.99922e-05 4.21253e-05)
(3.4328e-05 -3.17438e-05 1.33298e-05)
(1.40662e-05 -1.21141e-05 8.50509e-06)
(4.27202e-06 -2.26411e-06 1.86073e-07)
(8.62798e-06 -5.8801e-06 8.38612e-06)
(2.8385e-06 2.28475e-07 2.38985e-05)
(-2.22966e-05 2.10278e-05 6.12474e-05)
(-4.91381e-05 3.80813e-05 6.39792e-05)
(-3.81468e-05 3.75831e-05 5.71841e-05)
(-8.82537e-05 3.84989e-05 6.32637e-05)
(2.80762e-05 3.97598e-05 6.14938e-05)
(0.000670623 -8.64118e-05 -0.000792212)
(0.00133776 0.00156982 -0.00338363)
(0.000194897 0.000411135 -0.000513354)
(9.04714e-05 7.09672e-05 9.72341e-05)
(0.000146469 -9.32971e-05 0.00011038)
(3.98227e-05 -3.79476e-05 9.8872e-05)
(8.19538e-06 -2.96526e-06 3.76567e-05)
(-1.97497e-05 1.56863e-05 6.1342e-05)
(-2.33723e-06 1.76367e-05 0.000132531)
(-8.79504e-06 8.50289e-06 6.26167e-05)
(2.73641e-05 -2.17445e-05 5.05634e-05)
(-2.0262e-05 1.42641e-05 0.000143145)
(-4.43014e-05 2.22243e-06 0.000169713)
(9.67682e-06 -2.12783e-05 8.04548e-05)
(2.23582e-05 -2.22856e-05 2.94745e-05)
(8.24755e-06 -8.81077e-06 1.90985e-05)
(2.65067e-06 -4.15723e-06 3.89908e-06)
(1.1547e-06 -7.41059e-07 1.71612e-06)
(1.11547e-07 -1.52691e-07 1.67577e-07)
(-1.67578e-07 1.78458e-07 4.65102e-08)
(-8.88066e-08 1.84047e-07 -5.96133e-09)
(-6.19603e-08 1.9459e-07 -7.24735e-08)
(-1.38497e-07 1.75284e-07 -1.2676e-07)
(-6.06305e-08 -3.75061e-09 -1.31948e-07)
(7.77774e-07 -1.6926e-07 6.1996e-07)
(5.27207e-07 -6.35806e-09 3.67682e-06)
(-1.31713e-06 2.73646e-06 8.89636e-06)
(1.59837e-06 -5.51173e-07 8.4823e-06)
(2.9797e-06 -2.42895e-06 2.52856e-06)
(9.85998e-07 -1.06386e-06 1.75807e-07)
(1.57671e-07 8.5425e-08 8.01086e-08)
(3.29202e-06 -1.42213e-06 5.58949e-06)
(3.57171e-07 -4.74716e-07 1.85745e-06)
(-2.02666e-07 2.33204e-07 1.26279e-07)
(-1.8347e-07 4.03919e-07 7.36438e-08)
(-1.39541e-07 1.65747e-07 5.62857e-07)
(5.11345e-07 -7.00614e-07 1.19414e-06)
(-2.62266e-07 2.45216e-07 1.04064e-07)
(-3.80359e-07 2.82366e-07 1.39984e-07)
(-1.99154e-07 2.88953e-07 -2.18686e-08)
(-1.44635e-07 2.65066e-07 -1.27293e-07)
(6.43016e-08 -2.33084e-07 2.70542e-07)
(9.50005e-08 -1.05305e-07 4.22731e-08)
(-1.46868e-08 -3.62279e-08 -7.93944e-08)
(-2.10241e-08 4.17905e-08 -7.24926e-08)
(1.47041e-07 -2.12368e-07 6.09197e-07)
(8.58434e-08 -6.38776e-07 2.49503e-06)
(1.85918e-06 -2.61147e-06 8.57863e-06)
(-2.17405e-06 -1.64964e-08 1.99354e-05)
(4.1239e-07 -3.80612e-07 7.54745e-06)
(1.86024e-06 -1.96852e-06 1.66668e-05)
(1.56174e-06 -5.15248e-06 4.72499e-05)
(-3.02859e-05 8.79544e-06 0.000103762)
(-1.06265e-05 5.94559e-06 5.16344e-05)
(-3.04999e-06 3.39666e-06 2.04448e-05)
(-1.13597e-06 2.36203e-06 4.18927e-06)
(-3.00283e-07 5.19876e-07 9.89546e-08)
(-1.8877e-06 5.50026e-07 4.17413e-06)
(2.10082e-07 1.69536e-09 2.31494e-06)
(-1.9997e-06 -5.50828e-06 1.45782e-05)
(1.29053e-06 -2.5056e-06 5.58292e-06)
(2.64647e-07 -1.02606e-06 1.35528e-06)
(3.1974e-06 -3.15623e-06 3.2404e-06)
(1.21127e-05 -1.33405e-05 7.48469e-06)
(3.021e-05 -3.04558e-05 8.08215e-06)
(1.10978e-05 -1.38064e-05 5.36634e-06)
(6.55159e-05 -6.00689e-05 2.92303e-05)
(2.73114e-05 -3.25762e-05 3.40493e-05)
(7.29815e-06 -1.13533e-05 1.67791e-05)
(2.1015e-06 -1.53428e-05 4.60607e-05)
(1.91476e-05 -4.00031e-05 9.18882e-05)
(6.69728e-05 -7.24251e-05 0.000137486)
(0.000164605 -0.000103013 0.000125781)
(0.000258153 -3.47874e-05 1.09749e-05)
(0.000208025 0.000229358 -7.02216e-05)
(0.000224513 -3.68994e-05 6.61057e-05)
(0.00011256 -8.84428e-05 7.85514e-05)
(9.60435e-05 -7.8975e-05 1.6249e-05)
(6.32699e-05 -6.00033e-05 -1.16114e-05)
(6.85103e-05 -7.77599e-05 0.000103723)
(5.25259e-06 -2.12214e-05 0.000216341)
(-3.76282e-05 -9.32189e-06 0.000190701)
(-1.08245e-05 4.79123e-06 0.000260637)
(6.78347e-05 0.000127503 0.00018986)
(5.03506e-05 0.000650263 -0.000236931)
(-0.000204382 0.0022976 -0.00163956)
(-0.000106657 0.000706755 -0.000220445)
(-0.000116488 0.000173243 0.000101335)
(-0.000112687 7.38659e-05 0.00013098)
(-0.000103992 3.26992e-05 0.000127977)
(-4.90822e-05 1.63227e-05 4.32668e-05)
(-0.000154309 5.75286e-05 0.000191637)
(-7.30434e-05 1.67871e-05 0.000109089)
(-2.61632e-05 1.04068e-05 3.46064e-05)
(-2.14114e-05 -1.29274e-06 9.4739e-05)
(-6.18303e-06 -2.8687e-05 0.000114016)
(-6.34997e-05 2.4005e-05 0.000129549)
(-0.000128517 0.000135959 0.000201741)
(-0.000142102 0.0003171 8.83865e-05)
(2.70133e-05 2.93457e-05 0.000176371)
(-6.82802e-06 0.000451713 8.45254e-05)
(-0.000457847 0.00155894 -0.000397165)
(-0.00131846 0.00223951 -0.000377427)
(-0.000114027 0.000339448 9.84379e-06)
(0.000241815 -3.09283e-05 -3.01181e-05)
(-0.000658242 0.000895324 0.000107838)
(-0.00218088 0.00272393 -0.000253576)
(-0.00522216 0.00649388 -0.000537955)
(-0.0035051 0.00576379 -0.00105079)
(-0.00621571 0.0103441 -0.0020809)
(-0.00186725 0.0033271 -0.000161556)
(-0.00363944 0.00472171 0.000113979)
(-0.00896582 0.0129166 -0.00143895)
(-0.0119676 0.0185616 -0.00307697)
(-0.00796144 0.013744 -0.00344617)
(-0.00778768 0.0136313 -0.00449394)
(-0.00437385 0.00896981 -0.00417084)
(-0.00750775 0.0155578 -0.0109)
(-0.00768559 0.0180629 -0.0103993)
(-0.015025 0.0265259 -0.00966307)
(-0.0141474 0.0243977 -0.0111198)
(-0.010806 0.017798 -0.0100461)
(-0.00693142 0.0117423 -0.00465314)
(-0.0103843 0.016957 -0.00542206)
(-0.00815241 0.0131943 -0.00513679)
(-0.00229628 0.00458875 -0.00236136)
(-0.00312109 0.00425064 -0.00201287)
(-0.00469703 0.00674221 -0.00469196)
(-0.00384316 0.00557941 -0.00390289)
(-0.00367607 0.00659664 -0.00408294)
(-0.0121897 0.0184356 -0.00944186)
(-0.0180852 0.0277375 -0.0114599)
(-0.028418 0.0400039 -0.0131246)
(-0.0158553 0.0251686 -0.00649528)
(-0.0125724 0.019841 -0.00676822)
(-0.00980305 0.0146555 -0.00601493)
(-0.00276501 0.00465858 -0.00175424)
(-0.00240267 0.00498358 -0.00258598)
(-0.00420877 0.00515572 -0.00229021)
(-0.00586801 0.00734734 -0.0050073)
(-0.00397172 0.00525685 -0.0033902)
(-0.00386135 0.00666858 -0.00399446)
(-0.0142574 0.019298 -0.00961135)
(-0.021974 0.0300465 -0.0124791)
(-0.0380337 0.0449662 -0.0159407)
(-0.0215152 0.0305119 -0.00896001)
(-0.010381 0.0169485 -0.00392028)
(-0.00240123 0.00489229 -0.000775516)
(-0.00267891 0.00675801 -0.00207023)
(-0.0052491 0.00821397 -0.00283818)
(-0.00417133 0.00841848 -0.00351282)
(-0.00401095 0.00640417 -0.00305086)
(-0.00465857 0.00677724 -0.0032004)
(-0.00803132 0.00735473 -0.00331984)
(-0.0101649 0.0089652 -0.00532136)
(-0.010132 0.00840775 -0.00491085)
(-0.00820892 0.00707563 -0.00365419)
(-0.00521152 0.00523142 -0.00208795)
(-0.00436694 0.00492251 -0.00117394)
(-0.00604523 0.00686867 -0.00119448)
(-0.00748354 0.00787374 -0.00286329)
(-0.00744868 0.00734167 -0.00370945)
(-0.00655988 0.005817 -0.00330143)
(-0.0110316 0.00800782 -0.00566057)
(-0.00596651 0.00530572 -0.00535736)
(-0.00242952 0.00405946 -0.00491516)
(-9.17344e-05 0.00269203 -0.00428438)
(-0.00128472 0.00245631 -0.00402708)
(-0.00192821 0.000468534 -0.00256916)
(-0.0048377 0.00100262 -0.0037201)
(-0.00122982 -0.000376826 -0.00243803)
(-0.0103772 0.00413602 -0.00786009)
(-0.0227467 0.0125473 -0.0137608)
(-0.0226994 0.0127471 -0.00876067)
(-0.0416592 0.0210735 -0.0140442)
(-0.0309601 0.0172033 -0.00764778)
(-0.00920871 0.00372169 -0.00292833)
(-0.0104891 0.00499572 -0.00311062)
(-0.00808554 0.00345602 -0.00320959)
(-0.00596416 0.00257365 -0.00328317)
(-0.00523718 0.00068961 -0.00328209)
(-0.0116831 0.00381018 -0.00454439)
(-0.00987274 0.00248698 -0.00337072)
(-0.0112399 0.00513236 -0.00273579)
(-0.0110938 0.00522397 -0.00237974)
(-0.0106029 0.00674945 -0.00211825)
(-0.00983349 0.00636918 -0.0010861)
(-0.0113126 0.00955984 -0.0014607)
(-0.00647125 0.00760496 0.000393865)
(-0.00692304 0.00974905 -0.000180757)
(-0.00455318 0.00760337 0.000688921)
(-0.0179957 0.021873 -0.00114934)
(-0.0181545 0.0250965 -0.00160867)
(-0.0148748 0.023636 -0.00239993)
(-0.0108547 0.0187491 -0.00269874)
(-0.0233038 0.0343273 -0.0071652)
(-0.0319553 0.0414756 -0.00696394)
(-0.0349453 0.0416623 -0.0109621)
(-0.0164424 0.0242906 -0.00483753)
(-0.00363314 0.00795236 -0.00108148)
(-0.00412158 0.00708836 -0.00144794)
(-0.00471622 0.00693762 -0.00229731)
(-0.00474961 0.00663402 -0.00298399)
(-0.0064648 0.0084406 -0.00355401)
(-0.0103788 0.0104702 -0.00513208)
(-0.00805805 0.00893447 -0.0049209)
(-0.0099296 0.00964138 -0.00481701)
(-0.014304 0.0100734 -0.00492476)
(-0.0177783 0.0123313 -0.00744616)
(-0.0168149 0.0112576 -0.00715392)
(-0.0118346 0.0080043 -0.00538491)
(-0.011133 0.00849397 -0.00374544)
(-0.00986115 0.00758739 -0.00354033)
(-0.0073479 0.00657458 -0.00211778)
(-0.0093281 0.00758808 -0.00300734)
(-0.00960552 0.00680792 -0.00258521)
(-0.0151108 0.0112358 -0.00478656)
(-0.0231685 0.0146235 -0.00725531)
(-0.016729 0.00973054 -0.00532801)
(-0.0175215 0.00879182 -0.00442213)
(-0.0209184 0.011264 -0.00513946)
(-0.0194122 0.0105598 -0.0070574)
(-0.0111073 0.00472075 -0.00487628)
(-0.00554434 0.00220324 -0.00399948)
(-0.00990433 0.00333755 -0.00599056)
(-0.0195811 0.00786329 -0.00758923)
(-0.0222227 0.00905306 -0.00726917)
(-0.0192847 0.0076755 -0.00451469)
(-0.01267 0.00420235 -0.00339575)
(-0.0133969 0.00651658 -0.00353896)
(-0.0114391 0.00553013 -0.00190022)
(-0.0150837 0.00882583 -0.00266462)
(-0.0153822 0.0122024 -0.00284398)