/*--------------------------------*- C++ -*----------------------------------*\
| =========                 |                                                 |
| \\      /  F ield         | OpenFOAM: The Open Source CFD Toolbox           |
|  \\    /   O peration     | Version:  5.0                                   |
|   \\  /    A nd           | Web:      www.OpenFOAM.org                      |
|    \\/     M anipulation  |                                                 |
\*---------------------------------------------------------------------------*/
FoamFile
{
    version     2.0;
    format      ascii;
    class       volVectorField;
    location    "60";
    object      URest;
}
// * * * * * * * * * * * * * * * * * * * * * * * * * * * * * * * * * * * * * //

dimensions      [0 1 -1 0 0 0 0];

internalField   nonuniform List<vector> 
36178
(
(-0.00142057 0.0083323 -0.00701526)
(-8.39951e-05 0.00408435 -0.00397577)
(-0.000686458 0.00367947 -0.00288003)
(6.582e-05 0.00255802 -0.00263729)
(0.00062863 0.00347055 -0.00388232)
(0.000836146 0.00580354 -0.00616657)
(0.00143722 0.00949805 -0.00771616)
(0.000595717 0.00886675 -0.00529962)
(0.000645995 0.0109522 -0.00627942)
(-0.000370668 0.0060458 -0.00294775)
(-0.000834918 0.00584814 -0.00337299)
(0.000148791 0.00518346 -0.00326439)
(-3.33283e-05 0.00621962 -0.00470486)
(-0.00049452 0.00408931 -0.00281038)
(-0.000739883 0.00498937 -0.00364664)
(-0.00138352 0.00470694 -0.00266875)
(-0.00152188 0.00380841 -0.00242324)
(-0.00188844 0.00344766 -0.00174219)
(-0.00101578 0.00281018 -0.00187709)
(-0.00121129 0.00449447 -0.00281103)
(-0.00102242 0.00296649 -0.00242536)
(-0.00129903 0.00232395 -0.00147962)
(-0.000519979 0.00172271 -0.00144848)
(-0.000251474 0.00233566 -0.00215779)
(0.000480169 0.0023322 -0.00310859)
(0.00156031 0.00245626 -0.00409085)
(0.00173121 0.00395653 -0.00506728)
(0.00235212 0.00685803 -0.00836979)
(0.00386112 0.0129787 -0.0107856)
(0.0028056 0.0133568 -0.0089489)
(0.00206216 0.0106819 -0.00626305)
(0.00163436 0.0124368 -0.00593881)
(-8.2209e-05 0.0127921 -0.00570812)
(-0.000458889 0.010895 -0.00472435)
(-0.000425227 0.0117761 -0.00435723)
(-0.000543057 0.0109114 -0.00404377)
(-0.000656006 0.00951357 -0.00429087)
(-0.000858992 0.00517385 -0.00282467)
(-0.00162259 0.00566892 -0.00304232)
(-0.00111343 0.00514546 -0.00306891)
(-0.00331637 0.0123214 -0.0067357)
(-0.00539082 0.0159537 -0.00896689)
(-0.00820858 0.0184202 -0.0100793)
(-0.0104878 0.0191036 -0.00943438)
(-0.0112774 0.0177607 -0.00727347)
(-0.0103654 0.0146827 -0.00452602)
(-0.00790391 0.0103478 -0.00204079)
(-0.00515327 0.00609239 -0.000492825)
(-0.00282408 0.00334286 -5.37153e-05)
(-0.000881742 0.00103838 0.000124101)
(-0.00118296 0.00116797 -4.62704e-05)
(-0.00110661 0.00117222 -2.76172e-05)
(-0.00120331 0.00124798 -0.000134765)
(-0.00094905 0.00100861 -0.000240648)
(-0.000688016 0.000883722 -0.000136213)
(-0.000763649 0.00118948 -0.000537569)
(-0.000649999 0.00141813 -0.000898314)
(-0.000638845 0.00183434 -0.00135522)
(-0.000257192 0.000968497 -0.00101908)
(2.22782e-05 0.000461734 -0.000681341)
(9.48047e-05 0.00106736 -0.00165161)
(0.000565897 0.00090735 -0.00198271)
(0.000908801 0.00050465 -0.00187033)
(0.00253562 0.00187064 -0.00409408)
(0.00252477 0.00378415 -0.00542894)
(0.00364982 0.00682917 -0.00987067)
(0.00645342 0.0158507 -0.0130615)
(0.00518776 0.0190999 -0.0117684)
(0.00358918 0.0170579 -0.00760549)
(0.00159258 0.020615 -0.0059307)
(0.00266022 0.0323366 -0.0077099)
(0.000386947 0.0184802 -0.00692339)
(-0.00250458 0.019912 -0.00587902)
(-0.00190609 0.0124259 -0.00370268)
(-0.00209216 0.0115919 -0.00379112)
(-0.00226691 0.0109214 -0.00445847)
(-0.00198565 0.00669179 -0.00312295)
(-0.00149592 0.00425868 -0.00178125)
(-0.00160871 0.00431901 -0.0019426)
(-0.00189249 0.00458842 -0.00212621)
(-0.0016386 0.00517133 -0.002937)
(-0.00139294 0.00295802 -0.0013385)
(-0.00171266 0.00276535 -0.00139203)
(-0.00112335 0.00279614 -0.00159318)
(-0.00195443 0.00466453 -0.00236574)
(-0.00471817 0.0112881 -0.00571704)
(-0.00716326 0.0137652 -0.0070776)
(-0.00929628 0.0153766 -0.00708512)
(-0.010229 0.0151348 -0.0056)
(-0.00957933 0.0131319 -0.00349957)
(-0.00741559 0.00932226 -0.00145032)
(-0.00470873 0.00592678 -0.000519113)
(-0.00169559 0.00204607 -9.33437e-05)
(-0.00194307 0.00221923 -0.00025186)
(-0.00163784 0.00188862 -0.000249811)
(-0.00135274 0.00179138 -0.000141472)
(-0.00175287 0.00255781 -0.000702279)
(-0.00180777 0.00302203 -0.00122397)
(-0.00148831 0.00313115 -0.00168335)
(-0.0023036 0.00373748 -0.00195453)
(-0.00251242 0.00367518 -0.00144769)
(-0.00239801 0.00315897 -0.000864839)
(-0.00194091 0.00238347 -0.000348542)
(-0.00211231 0.00296283 -0.000269497)
(-0.00315818 0.0042546 -0.000954286)
(-0.00328681 0.00486738 -0.00154506)
(-0.00283512 0.00463807 -0.00185026)
(-0.00185328 0.00381211 -0.00191693)
(-0.00245154 0.00398652 -0.00230468)
(-0.00226683 0.00321696 -0.00169205)
(-0.00254774 0.00316521 -0.00125129)
(-0.00174422 0.00274758 -0.00137629)
(-0.00202437 0.00301768 -0.00116331)
(-0.0019097 0.00278103 -0.000556377)
(-0.00267234 0.00339147 -0.000691293)
(-0.00276886 0.00374495 -0.000451679)
(-0.00240484 0.00312393 -0.000343991)
(-0.00230586 0.00288236 -0.000131968)
(-0.00278826 0.00351809 -0.000285062)
(-0.00245517 0.00323847 -6.07351e-06)
(-0.00195351 0.00269399 8.05968e-06)
(-0.00182077 0.00203871 -0.000203739)
(-0.00142936 0.00175976 8.17237e-05)
(-0.0013062 0.00170366 -8.73005e-06)
(-0.00144031 0.00160903 5.54225e-05)
(-0.0011461 0.00128231 9.54943e-05)
(-0.00072264 0.000729024 0.000201786)
(-0.000387912 0.000396515 0.000127162)
(-0.00018038 0.000179002 5.03367e-05)
(-0.000201014 0.000199528 1.91912e-05)
(-0.000164181 0.000172821 -1.5981e-06)
(-0.000125661 0.000170562 9.89186e-06)
(-0.000182026 0.000269527 -8.47967e-05)
(-0.000203289 0.000414646 -0.000322358)
(-0.000394415 0.000848732 -0.000689444)
(-0.000508335 0.000661247 -0.000403738)
(-0.000484727 0.000496533 -0.000169359)
(-0.000293609 0.00031476 -3.73505e-05)
(-0.000816179 0.000713246 -0.000113767)
(-0.000359202 0.000351545 3.92877e-05)
(-0.000831302 0.000765255 4.78857e-05)
(-0.00132948 0.00146397 5.30366e-05)
(-0.000844006 0.0010898 7.82508e-06)
(-0.000265919 0.000340434 -1.17331e-05)
(-4.66786e-05 5.13046e-05 3.16733e-06)
(-1.28087e-07 1.51217e-05 4.14997e-06)
(4.04953e-06 6.20373e-07 -2.87898e-06)
(7.8837e-06 2.6256e-06 2.87349e-08)
(1.40101e-06 3.88002e-06 -6.68686e-07)
(1.44459e-06 5.41914e-06 3.04345e-06)
(-1.06113e-05 1.87895e-05 2.03535e-06)
(-2.50287e-05 5.07316e-05 -4.38616e-05)
(-4.54198e-05 0.000121439 -0.000120172)
(-8.18877e-05 9.79479e-05 -6.71052e-05)
(-6.07341e-05 5.71135e-05 -1.09742e-05)
(-2.00288e-05 2.57309e-05 -8.52918e-07)
(-8.42135e-05 5.41404e-05 -1.98048e-05)
(-1.2835e-05 1.85725e-05 5.2452e-06)
(-5.33917e-05 4.21671e-05 2.97881e-06)
(-0.00012753 0.000123144 3.44694e-05)
(-0.000140444 0.000151617 3.94306e-05)
(-6.69533e-05 0.000104087 4.78565e-07)
(-1.37821e-05 1.56104e-05 -2.59023e-06)
(2.20145e-05 -1.28791e-05 -8.0152e-06)
(1.54141e-05 -1.52669e-05 -7.81851e-06)
(8.77031e-06 -6.39671e-06 -2.50694e-06)
(8.66126e-06 -5.0594e-06 7.65316e-07)
(4.5085e-06 -3.30144e-06 2.2526e-06)
(1.96647e-06 -2.53735e-06 2.37437e-06)
(-3.4246e-07 -4.43823e-07 3.47269e-06)
(-4.88478e-07 1.87661e-06 4.59066e-06)
(-1.46421e-06 -1.38236e-06 1.80321e-06)
(3.98277e-06 -4.91274e-06 3.19981e-06)
(7.88164e-06 -6.63378e-06 6.68772e-06)
(4.72135e-06 -8.25603e-06 1.17064e-05)
(5.44016e-06 -6.40404e-06 4.31689e-06)
(4.75893e-06 -3.88409e-06 8.38479e-07)
(1.41888e-06 -1.79954e-06 5.88994e-07)
(2.92777e-07 -5.70429e-07 2.45597e-07)
(2.44049e-07 -8.32656e-07 1.56159e-06)
(-2.69125e-07 -9.90721e-07 3.51097e-06)
(1.56037e-06 -2.30452e-06 2.16171e-06)
(1.72547e-06 -3.40983e-06 5.32513e-06)
(1.56713e-06 -2.53387e-06 1.86875e-06)
(5.5676e-07 -6.4394e-07 2.64661e-07)
(3.48933e-07 -1.7337e-07 2.07018e-07)
(-2.29862e-09 -6.88969e-08 4.32928e-09)
(5.68998e-08 -1.02645e-07 2.84616e-07)
(-2.26823e-07 -2.40952e-07 6.86415e-07)
(-7.29907e-07 6.64799e-08 2.15003e-06)
(-3.67478e-06 7.16347e-07 6.21926e-06)
(-1.23564e-06 -9.46516e-10 4.06683e-06)
(-2.25284e-06 -2.19128e-06 8.46954e-06)
(-4.20822e-06 6.39976e-07 5.54222e-06)
(-2.23168e-06 5.37431e-06 7.05446e-06)
(-6.49886e-06 3.19324e-06 4.24862e-06)
(-7.26607e-06 2.86536e-05 -1.69906e-05)
(8.2373e-06 5.3513e-05 -7.71895e-05)
(6.20889e-05 0.000129703 -0.000189774)
(-2.44808e-05 0.000119229 -0.000142404)
(-9.93975e-05 0.000390993 -0.000304386)
(-0.000467964 0.00152742 -0.00123079)
(-0.000460323 0.000906091 -0.000590013)
(-0.000295959 0.000415055 -0.000154009)
(-0.000100832 0.000158608 -2.46236e-05)
(-1.71194e-05 4.27094e-05 -1.02725e-06)
(2.50464e-05 -1.51513e-05 -5.81262e-06)
(2.40938e-05 -2.15309e-05 2.40603e-06)
(1.33605e-05 -1.20845e-05 9.97635e-07)
(4.75584e-06 -4.11569e-06 -8.7728e-07)
(2.73666e-06 -2.15789e-06 -6.00065e-07)
(8.18727e-07 -8.24122e-07 -1.61489e-07)
(8.75402e-07 -8.01712e-07 1.89904e-07)
(2.09266e-06 -2.03668e-06 -2.19489e-07)
(5.52093e-06 -4.19761e-06 -7.64006e-07)
(7.77548e-06 -7.63012e-06 -1.8602e-06)
(9.28978e-06 -6.44946e-06 -1.85708e-06)
(5.7862e-06 -5.65154e-06 3.40941e-08)
(2.83037e-06 -2.90143e-06 -4.94585e-07)
(8.56789e-07 -8.4947e-07 -2.52993e-07)
(1.82945e-07 -4.72064e-08 1.46399e-09)
(-1.0843e-08 -2.79178e-08 -8.32673e-09)
(-1.76034e-08 3.97964e-08 1.77907e-08)
(-1.85092e-08 1.54005e-08 -3.78388e-09)
(-1.32066e-08 1.00304e-08 -5.40695e-09)
(-7.8981e-09 6.42665e-09 -1.63649e-08)
(4.93104e-09 -1.07894e-08 1.86927e-09)
(-1.76047e-08 1.25548e-08 6.57638e-08)
(1.93213e-08 -2.28538e-08 3.72582e-08)
(-1.25859e-08 1.00462e-08 -2.88318e-08)
(-3.46069e-08 2.31488e-08 -3.87052e-08)
(-1.39002e-08 3.03906e-08 -4.24709e-08)
(-7.1845e-09 9.59979e-09 -8.24348e-09)
(-1.73085e-09 9.46091e-09 -1.08225e-08)
(2.1204e-09 -3.46978e-09 -6.37572e-09)
(-5.66873e-09 3.86524e-09 2.05824e-08)
(8.72131e-09 3.9599e-08 9.08776e-08)
(-2.84082e-07 -3.75229e-08 1.75201e-07)
(-1.90802e-07 5.63734e-07 1.02578e-06)
(-2.05738e-06 1.3612e-06 3.56449e-06)
(-5.80965e-06 4.01222e-06 8.31912e-06)
(-7.01984e-06 3.3645e-06 6.15779e-06)
(-8.06498e-06 4.38147e-07 1.00683e-05)
(5.43575e-06 9.43452e-06 -9.72639e-06)
(2.73656e-05 -1.44955e-05 -3.23511e-05)
(6.91132e-05 3.04308e-05 -0.000119117)
(0.000274618 0.000134097 -0.000618283)
(0.000189644 -1.50617e-05 -0.000334326)
(0.000742526 8.28822e-05 -0.00123673)
(0.00222047 0.00136946 -0.00285908)
(0.00355716 0.00352091 -0.00860758)
(0.00423196 0.00748026 -0.00756398)
(0.00913073 0.0125119 -0.0130305)
(0.00829055 0.0207976 -0.0134788)
(0.00723484 0.026827 -0.0131039)
(0.00509957 0.0251354 -0.00871684)
(0.00454403 0.030957 -0.00824279)
(0.00556403 0.0310209 -0.00576051)
(0.00280248 0.0288803 -0.00298315)
(0.00334913 0.0314713 -0.00460969)
(0.000406451 0.0328487 -0.00407924)
(-0.00143617 0.0335042 -0.00696564)
(-0.00118654 0.0225313 -0.00445274)
(-0.00321328 0.0143711 -0.00420249)
(-0.00224369 0.0093029 -0.00255899)
(-0.00243511 0.00942902 -0.00262295)
(-0.00311964 0.00928463 -0.00336275)
(-0.00283548 0.00643079 -0.00256515)
(-0.00201995 0.00431258 -0.00153667)
(-0.00225484 0.00451129 -0.00190822)
(-0.00250811 0.00506019 -0.00233551)
(-0.00204404 0.00317552 -0.00154767)
(-0.00257987 0.00396769 -0.0021255)
(-0.00159944 0.00244014 -0.00134748)
(-0.00175917 0.002757 -0.00149732)
(-0.00146718 0.00252091 -0.00134876)
(-0.00187644 0.00433332 -0.0020744)
(-0.00563433 0.0103297 -0.00490949)
(-0.00890043 0.0142174 -0.00690454)
(-0.0119092 0.0172205 -0.00754392)
(-0.0140603 0.018626 -0.00681725)
(-0.0134074 0.0171072 -0.00456478)
(-0.0104027 0.0133231 -0.00227868)
(-0.00671108 0.0087678 -0.000746848)
(-0.0073194 0.00937143 -0.000867259)
(-0.00413336 0.0053423 -0.000373654)
(-0.00418365 0.0049646 -0.000247721)
(-0.00337688 0.00408689 -0.000200895)
(-0.00231085 0.0029154 -0.000299627)
(-0.000758553 0.000916749 6.3568e-05)
(-0.000421048 0.000515507 0.000151827)
(-0.000168889 0.000402572 4.41558e-07)
(-7.75636e-05 0.000169346 -3.50703e-05)
(-7.82958e-06 5.02228e-05 -3.09963e-05)
(1.31594e-06 -2.52269e-06 -4.41659e-06)
(2.20211e-05 -1.29274e-05 -9.21542e-06)
(1.0325e-05 -8.03434e-06 -1.67517e-06)
(6.81108e-06 -8.23739e-06 3.33191e-06)
(1.28359e-06 -2.56073e-06 6.37765e-06)
(2.36503e-06 -3.94211e-06 3.86268e-06)
(2.06791e-06 -2.56087e-06 8.29709e-07)
(9.84003e-07 -9.65448e-07 -5.90208e-08)
(1.17361e-07 -2.78171e-07 3.7935e-08)
(-5.07989e-09 -2.26438e-08 2.05372e-08)
(1.77071e-08 1.55648e-08 1.70964e-08)
(-1.21171e-08 1.75557e-08 1.31944e-08)
(-2.00272e-08 1.37925e-08 2.36535e-09)
(-9.22726e-09 1.21023e-08 -8.2542e-10)
(-1.00585e-08 1.33537e-08 -8.61141e-09)
(7.30534e-11 1.10143e-08 -7.39717e-09)
(1.0417e-08 1.12467e-08 -1.86913e-08)
(1.61403e-08 -1.74141e-08 -5.38301e-08)
(4.67921e-08 4.94319e-08 9.31392e-08)
(6.04181e-08 6.798e-08 3.74872e-07)
(-3.89047e-07 2.39077e-07 8.87402e-07)
(-6.61578e-07 2.18566e-06 3.85008e-06)
(-2.51699e-06 3.99832e-06 7.86148e-06)
(-9.82656e-06 5.22205e-06 7.17159e-06)
(-8.29217e-06 3.28907e-06 3.89317e-06)
(6.295e-06 4.19779e-06 -1.02918e-05)
(4.49326e-05 -1.96898e-06 -3.14211e-05)
(0.000252436 -6.61426e-05 -0.000435951)
(0.00104318 -4.59023e-05 -0.00171119)
(0.00231229 0.00169148 -0.00304323)
(0.0066152 0.0071111 -0.0110579)
(0.00419727 0.0101286 -0.0169621)
(0.00780952 0.012131 -0.0109624)
(0.00909089 0.0248057 -0.0148836)
(0.00767285 0.0307077 -0.0128064)
(0.00487449 0.0285986 -0.00885713)
(0.00413736 0.0366435 -0.00928987)
(0.00515334 0.0441653 -0.00726088)
(0.00345073 0.0420362 -0.00497915)
(0.00361415 0.0432464 -0.00490496)
(0.00242501 0.0298334 -0.00277855)
(0.00020036 0.0340312 -0.00460323)
(-0.00160765 0.0337145 -0.00637956)
(-0.00322054 0.0278712 -0.00658317)
(-0.00435972 0.0186827 -0.00553933)
(-0.00397551 0.0121226 -0.00346106)
(-0.00323108 0.00784599 -0.00272942)
(-0.00294268 0.00651625 -0.00292983)
(-0.00229288 0.00545735 -0.00196817)
(-0.00234704 0.00453467 -0.00171627)
(-0.00165652 0.00324629 -0.00105384)
(-0.00209142 0.00389198 -0.00149962)
(-0.00251957 0.00475621 -0.00210798)
(-0.00230155 0.00389684 -0.00181471)
(-0.00149293 0.0026719 -0.00113817)
(-0.00139069 0.00308371 -0.00161501)
(-0.0018907 0.00311727 -0.00147951)
(-0.00226319 0.00374593 -0.00203549)
(-0.00254628 0.00428303 -0.00207408)
(-0.00289777 0.00392963 -0.00175309)
(-0.00276079 0.00415437 -0.0023969)
(-0.00271489 0.00402781 -0.00204792)
(-0.00636476 0.00972699 -0.0049523)
(-0.00915252 0.0126198 -0.00577573)
(-0.011393 0.0144185 -0.00548981)
(-0.0111922 0.0136583 -0.00385738)
(-0.00874605 0.0109955 -0.00189227)
(-0.00354007 0.00432778 -0.000823968)
(-0.00205336 0.00279511 -0.000111244)
(-0.00224258 0.00271478 -0.000225742)
(-0.00216357 0.00263249 -0.000205946)
(-0.00249068 0.00301888 -0.000208529)
(-0.0018005 0.00252083 2.13437e-05)
(-0.00190098 0.00233793 -5.99041e-05)
(-0.00162837 0.00201434 -5.12183e-05)
(-0.00122126 0.00129836 1.17835e-05)
(-0.00143116 0.00178255 -0.000246409)
(-0.00151507 0.0022187 -0.0005666)
(-0.0012502 0.00148575 -0.000147267)
(-0.000653579 0.000884234 -0.000194796)
(-0.000391635 0.000555919 2.8228e-05)
(-0.00040624 0.000776193 -0.000236514)
(-0.000287921 0.000749842 -0.000489516)
(-0.000146383 0.000436738 -0.000237474)
(-0.000115671 0.000170593 -7.78952e-05)
(-0.000246548 0.000553466 -0.000627414)
(3.94248e-05 0.000385761 -0.000958574)
(-7.31433e-06 0.000202558 -0.000419343)
(-5.65433e-06 7.70998e-05 -6.39786e-05)
(5.78564e-06 1.41085e-05 -2.83785e-05)
(1.61641e-05 1.49705e-06 -1.55993e-05)
(-1.96042e-06 8.81452e-06 -1.22315e-05)
(-2.29334e-05 7.69731e-05 -4.37002e-05)
(-0.000103275 0.000311459 -0.000159959)
(-1.59472e-05 8.9501e-05 -8.71379e-05)
(1.40078e-06 -9.42331e-06 9.89365e-07)
(-4.65229e-06 6.23497e-06 -0.000100325)
(1.8885e-05 1.38345e-05 -0.000443546)
(0.000661569 8.26746e-05 -0.00172763)
(0.00186641 0.000966537 -0.00513608)
(0.00303504 0.00306393 -0.00829214)
(0.00345808 0.00663765 -0.0138474)
(0.00710438 0.00969535 -0.0116174)
(0.00561203 0.0190654 -0.0160434)
(0.00268751 0.0214349 -0.0208383)
(0.00815724 0.0280934 -0.0149138)
(0.0127483 0.0563128 -0.0221812)
(0.0122226 0.0725204 -0.0186512)
(0.00678474 0.0683533 -0.0131163)
(0.00383009 0.0512159 -0.00600393)
(0.00488248 0.0470365 -0.0085766)
(0.00490226 0.050788 -0.00967502)
(0.00899094 0.0553538 -0.00737107)
(0.00290758 0.0488019 -0.00590023)
(0.00105427 0.0476967 -0.00799341)
(0.000304442 0.038875 -0.00715602)
(-0.000686604 0.0447795 -0.0129162)
(-0.00467448 0.031973 -0.0108189)
(-0.00620836 0.020521 -0.00777962)
(-0.00643593 0.0151132 -0.00663679)
(-0.0036321 0.010064 -0.00350112)
(-0.00291275 0.00539743 -0.00233673)
(-0.00306031 0.00480914 -0.0021073)
(-0.00285361 0.004384 -0.00187741)
(-0.00232018 0.00341593 -0.00142443)
(-0.00252872 0.00367481 -0.00159911)
(-0.00223808 0.00359803 -0.00158482)
(-0.00211264 0.00355311 -0.00145266)
(-0.00132417 0.00254565 -0.000913383)
(-0.0015876 0.00311859 -0.0013996)
(-0.00160657 0.00308985 -0.00158553)
(-0.00178928 0.00285823 -0.00211961)
(-0.00125243 0.00267645 -0.00195938)
(-0.00190317 0.00313015 -0.00164318)
(-0.00148176 0.00294422 -0.00159992)
(-0.00498415 0.00736508 -0.0042322)
(-0.00825729 0.0100748 -0.00622509)
(-0.0127026 0.0120633 -0.00740517)
(-0.0152512 0.012823 -0.00664226)
(-0.0138621 0.0116883 -0.00431506)
(-0.00990971 0.00906003 -0.00218324)
(-0.00349323 0.00357504 -0.000430673)
(-0.00380845 0.00395406 -0.000835304)
(-0.00330424 0.00361657 -0.000612571)
(-0.00287503 0.00357817 -0.00058683)
(-0.00337673 0.00414875 -0.00147956)
(-0.0031501 0.00413462 -0.0019161)
(-0.00246495 0.00347888 -0.00165256)
(-0.00203124 0.00337287 -0.00203435)
(-0.00215232 0.00290809 -0.00135087)
(-0.00278594 0.00333989 -0.00176079)
(-0.00327222 0.00344416 -0.00156335)
(-0.00313412 0.00325503 -0.000998807)
(-0.00273104 0.00266147 -0.000951156)
(-0.00301914 0.00291807 -0.00199357)
(-0.00217558 0.00264019 -0.00179852)
(-0.00139006 0.0021663 -0.00150209)
(-0.00125381 0.00229966 -0.00184752)
(-0.000724228 0.00105272 -0.00140158)
(-0.000872817 0.000736943 -0.00115584)
(-0.00068899 5.20318e-05 -0.000522849)
(-0.000563015 0.000510424 -0.000982422)
(-0.000975913 0.000646586 -0.000875584)
(-0.00239743 0.00108692 -0.00119194)
(-0.00306501 0.00173822 -0.00116665)
(-0.00365145 0.00268281 -0.00115687)
(-0.00400811 0.00372259 -0.00084365)
(-0.00434252 0.00305711 -0.00113518)
(-0.00440107 0.00281859 -0.000881352)
(-0.00406988 0.00328967 -0.000662679)
(-0.00377327 0.00345022 -0.000723179)
(-0.00328571 0.00401896 -0.000227875)
(-0.00316021 0.00343992 -0.000406892)
(-0.00292684 0.00347186 -0.000105604)
(-0.00331426 0.00380195 -0.000479525)
(-0.00285606 0.00329718 -0.00057338)
(-0.00233544 0.00298691 -0.000385255)
(-0.00293866 0.00381969 -0.000983204)
(-0.00307838 0.00401489 -0.00148497)
(-0.0025492 0.00345265 -0.00150295)
(-0.00252019 0.00356979 -0.00181264)
(-0.00278312 0.00364421 -0.00134212)
(-0.0034207 0.00433122 -0.00157596)
(-0.00356094 0.00433088 -0.00119373)
(-0.00306946 0.00368638 -0.000645285)
(-0.00718948 0.00839184 -0.00165668)
(-0.0118041 0.0129635 -0.00279589)
(-0.00809842 0.00928831 -0.00113594)
(-0.00363845 0.00447557 -0.000242189)
(-0.00971085 0.0116289 -0.00116069)
(-0.00577634 0.00716435 -0.000509652)
(-0.00182328 0.00230828 -4.1616e-05)
(-0.00273313 0.00338154 -0.00017851)
(-0.00246335 0.00314753 -0.000189536)
(-0.00194305 0.00263854 -0.000194411)
(-0.00152529 0.00178057 -9.80126e-05)
(-0.00190803 0.00244997 -0.000373926)
(-0.00201988 0.00266156 -0.000581586)
(-0.00184436 0.00203186 -0.000203917)
(-0.00367814 0.00438988 -0.000507139)
(-0.00482275 0.00602587 -0.000582443)
(-0.00464672 0.00580746 -0.000812725)
(-0.00210226 0.00252094 -0.000331806)
(-0.00221447 0.00295977 -0.000518067)
(-0.0022991 0.00314221 -0.000693442)
(-0.00166023 0.00205611 -0.000406811)
(-0.00173105 0.00204574 -0.000571645)
(-0.00259449 0.00331963 -0.0016572)
(-0.0022687 0.00277255 -0.00161788)
(-0.00244316 0.00310214 -0.00142712)
(-0.00159936 0.00200317 -0.00066964)
(-0.00139357 0.00175458 -0.000407208)
(-0.00140101 0.00184839 -0.000635792)
(-0.00227135 0.0031902 -0.00199992)
(-0.00188022 0.00280916 -0.00241937)
(-0.00169989 0.00269762 -0.00193779)
(-0.00114124 0.00160797 -0.000695495)
(-0.000848667 0.0012516 -0.000419696)
(-0.000870942 0.00135981 -0.000646753)
(-0.00143902 0.00275041 -0.00237121)
(-0.000997752 0.00261302 -0.00326196)
(-0.000524592 0.00189358 -0.00216333)
(-0.000486978 0.00106317 -0.000653991)
(-0.00024369 0.000559108 -0.000608738)
(-0.000346997 0.00137453 -0.00199574)
(-0.000384472 0.00335642 -0.0055208)
(0.000464507 0.00376902 -0.00862443)
(0.00129671 0.00168555 -0.00438897)
(0.000268007 0.000719796 -0.00163134)
(0.000162735 0.000116451 -0.000871477)
(0.000701837 0.000710594 -0.00294035)
(0.00111739 0.00313776 -0.00675981)
(9.03618e-05 0.00139475 -0.00251726)
(0.000137688 0.000567329 -0.00141204)
(-2.91823e-05 0.000241785 -0.000402705)
(-0.00029757 0.000915059 -0.000775465)
(-0.000618055 0.00154607 -0.00118127)
(-0.000322881 0.000652435 -0.000292109)
(-0.000730686 0.00130968 -0.000216309)
(-0.00124413 0.00192342 -0.000407774)
(-0.00221342 0.00387364 -0.00142581)
(-0.000950236 0.00221043 -0.00137011)
(-0.00140236 0.00401502 -0.00388353)
(-0.000782849 0.00332225 -0.00351486)
(-0.000278207 0.00206747 -0.00237527)
(-0.00156749 0.00393822 -0.00262231)
(-0.000976488 0.00193407 -0.000870494)
(-0.000402032 0.000728465 -0.000149096)
(-0.000118246 0.000177443 -3.36067e-05)
(7.77381e-06 4.07567e-05 -2.32231e-05)
(3.1096e-05 -8.03544e-06 -1.18412e-05)
(1.93659e-05 -1.34738e-05 2.88938e-06)
(1.1477e-05 -1.6176e-05 8.51329e-06)
(7.60807e-06 -7.96395e-06 2.72344e-06)
(3.05967e-06 -3.07435e-06 1.96142e-06)
(9.61674e-07 -6.68205e-07 1.01645e-07)
(1.42404e-06 -1.21725e-06 1.80516e-06)
(-8.29167e-08 4.32747e-07 5.44973e-06)
(-8.1556e-06 5.40673e-06 1.35046e-05)
(-1.13966e-05 7.8635e-06 4.50673e-06)
(-1.68019e-06 2.97013e-07 -1.53293e-05)
(-1.68731e-05 5.9911e-06 -1.48548e-05)
(1.96391e-05 -7.18767e-06 -8.65395e-05)
(0.000238032 -7.23424e-05 -0.000425004)
(0.00061033 0.000391284 -0.0016164)
(8.94241e-05 0.000133355 -0.000470816)
(-2.79744e-07 5.98073e-05 -0.000112311)
(1.60701e-05 4.8193e-06 -4.67598e-06)
(1.4707e-07 -2.95577e-06 1.58396e-05)
(-4.63618e-07 -4.2941e-08 8.87545e-06)
(-9.74665e-06 6.44471e-06 2.9559e-06)
(-8.174e-07 2.79359e-06 -4.60355e-06)
(-1.58206e-05 1.11915e-05 -1.07378e-05)
(-1.89186e-06 2.01337e-06 1.00016e-05)
(-1.91688e-05 1.85649e-05 -9.21132e-06)
(-1.90133e-05 -1.95446e-07 2.95901e-05)
(-5.2413e-07 -4.92912e-06 1.76304e-05)
(3.89556e-06 -5.74811e-06 6.53312e-06)
(2.06914e-06 -2.28518e-06 4.62039e-06)
(9.11242e-07 -1.00277e-06 1.0318e-06)
(3.25883e-07 -1.61347e-07 3.7606e-07)
(3.99877e-08 -3.37258e-08 2.23835e-08)
(-3.49822e-08 2.00425e-08 1.60565e-08)
(-9.27674e-09 2.74565e-08 -4.26742e-09)
(-5.42382e-09 2.74055e-08 -1.40544e-08)
(-2.33769e-08 2.20342e-08 -2.80282e-08)
(2.74347e-09 -1.68333e-08 -2.76135e-08)
(1.63601e-07 -3.90866e-08 1.21713e-07)
(1.12209e-07 -1.46648e-09 8.2496e-07)
(-2.69839e-07 5.48523e-07 2.02576e-06)
(4.81405e-07 -1.42544e-07 1.9329e-06)
(7.01366e-07 -6.01956e-07 6.28717e-07)
(3.45408e-07 -3.42815e-07 9.01843e-08)
(4.61937e-08 1.64456e-08 5.20253e-09)
(7.94908e-07 -3.84281e-07 1.25504e-06)
(1.02132e-07 -1.29729e-07 3.76511e-07)
(-5.40849e-08 2.34325e-08 -6.15461e-09)
(-3.62188e-08 7.26456e-08 4.09846e-10)
(-2.40066e-08 3.2545e-08 1.08874e-07)
(1.20856e-07 -1.68301e-07 2.68044e-07)
(-2.29999e-08 5.38745e-08 2.17748e-11)
(-6.01533e-08 5.40726e-08 1.46392e-08)
(-2.4605e-08 4.65345e-08 -1.03236e-08)
(-5.49652e-09 4.34487e-08 -4.4457e-08)
(5.39623e-08 -6.72843e-08 2.78456e-08)
(3.45822e-08 -2.87554e-08 -6.13137e-09)
(5.98462e-10 -6.88139e-09 -1.15176e-08)
(-1.66149e-09 5.65122e-09 -9.76469e-09)
(5.18596e-08 -4.62428e-08 1.09647e-07)
(5.09863e-08 -1.45866e-07 5.25699e-07)
(4.09371e-07 -6.30153e-07 2.00158e-06)
(-5.80757e-07 -6.14786e-08 4.70134e-06)
(1.4391e-07 -1.21379e-07 1.65027e-06)
(4.83707e-07 -5.66022e-07 3.76065e-06)
(1.96161e-07 -1.56272e-06 1.11261e-05)
(-8.52836e-06 1.36509e-06 2.2874e-05)
(-2.9561e-06 1.42242e-06 1.17873e-05)
(-8.16915e-07 7.36737e-07 4.51643e-06)
(-2.60322e-07 5.34833e-07 9.05099e-07)
(-7.71675e-08 1.34779e-07 5.11574e-08)
(-4.09776e-07 1.20181e-07 9.63531e-07)
(9.0893e-08 -2.53451e-08 4.7829e-07)
(-5.2207e-07 -1.39221e-06 3.42726e-06)
(2.96698e-07 -6.34413e-07 1.3434e-06)
(8.08555e-08 -2.39823e-07 3.245e-07)
(8.12265e-07 -8.27187e-07 8.45245e-07)
(3.22993e-06 -3.44497e-06 1.82828e-06)
(7.62112e-06 -7.23816e-06 1.56081e-06)
(2.76531e-06 -3.26081e-06 1.31905e-06)
(1.49778e-05 -1.39629e-05 5.73493e-06)
(6.49132e-06 -8.32631e-06 7.88461e-06)
(1.79327e-06 -2.86085e-06 4.09264e-06)
(4.51577e-07 -4.04085e-06 1.07699e-05)
(3.51457e-06 -9.60945e-06 1.91121e-05)
(7.56946e-06 -1.17686e-05 2.0814e-05)
(1.71298e-05 5.31377e-06 -2.95356e-06)
(-9.19334e-06 9.39334e-05 -7.16746e-05)
(-0.000130017 0.00029909 -0.000107949)
(-5.75597e-06 7.2597e-05 -3.14239e-05)
(1.2163e-05 -5.47431e-06 2.79876e-06)
(1.85945e-05 -1.34867e-05 3.05813e-07)
(8.18416e-06 -1.26248e-05 -5.39844e-06)
(1.2515e-05 -1.22915e-05 1.52703e-05)
(-2.83623e-06 7.24477e-06 1.15852e-05)
(-1.06542e-05 -2.13213e-06 3.00176e-05)
(-1.21312e-05 1.16897e-05 8.64005e-06)
(-1.0833e-05 9.65851e-05 -7.88757e-05)
(-8.03973e-05 0.000365186 -0.000345458)
(-2.23704e-05 0.000869197 -0.00112379)
(-3.5917e-07 0.000266125 -0.000373172)
(-1.11974e-05 3.9258e-05 -0.000119304)
(-2.7154e-05 1.88222e-05 -1.34367e-05)
(-2.50397e-05 5.66957e-06 1.58339e-05)
(-1.06533e-05 2.65472e-06 6.33518e-06)
(-2.83103e-05 6.66855e-06 9.62907e-06)
(-1.61086e-05 1.93727e-06 1.57288e-05)
(-5.5599e-06 1.73396e-06 6.13388e-06)
(-4.8652e-06 -8.08125e-07 2.12035e-05)
(-8.92058e-07 -4.72079e-06 1.99057e-05)
(-1.11128e-05 8.53851e-06 6.59885e-06)
(-1.47483e-05 4.74018e-05 -4.29024e-05)
(-3.62149e-05 0.000146922 -0.000129766)
(-1.40294e-05 4.80039e-05 -2.31156e-05)
(-9.46124e-05 0.000293029 -0.000163288)
(-0.000385579 0.000856381 -0.000462629)
(-0.0008693 0.00127797 -0.000400188)
(-0.000376785 0.000431079 -2.89154e-05)
(-7.92792e-05 0.000132994 1.95057e-06)
(-0.000619767 0.000678764 1.47865e-05)
(-0.00131291 0.00151737 -0.000224313)
(-0.00279563 0.00323998 -0.000341467)
(-0.00195509 0.00286199 -0.000693502)
(-0.00326528 0.00468665 -0.000996278)
(-0.00148465 0.00202458 -1.94387e-05)
(-0.00237371 0.00265875 0.000111776)
(-0.00457376 0.00577333 -0.000682313)
(-0.0060872 0.0078037 -0.00123947)
(-0.0042085 0.00591314 -0.00132699)
(-0.0042215 0.00581323 -0.00155955)
(-0.00246162 0.00375535 -0.00148828)
(-0.00379555 0.00618178 -0.00389063)
(-0.00363612 0.00709716 -0.00416997)
(-0.0066733 0.010263 -0.00391728)
(-0.00678674 0.00970957 -0.00400959)
(-0.00552957 0.00738786 -0.0033091)
(-0.00383551 0.00502323 -0.00151028)
(-0.0056615 0.00728601 -0.00168217)
(-0.0045689 0.00586452 -0.00154703)
(-0.00172497 0.0022613 -0.000655468)
(-0.00192197 0.00230473 -0.000568652)
(-0.00275353 0.0035888 -0.00155656)
(-0.00223322 0.0028309 -0.00121302)
(-0.00258755 0.00330602 -0.00114229)
(-0.00628568 0.00808474 -0.00295482)
(-0.00872936 0.0113915 -0.00376333)
(-0.0122454 0.0158017 -0.00434503)
(-0.00798978 0.0103132 -0.00203054)
(-0.00660472 0.00858323 -0.00198283)
(-0.00517683 0.00664808 -0.00174941)
(-0.00185052 0.00235394 -0.000472569)
(-0.00182633 0.00249466 -0.000720665)
(-0.00233488 0.00272347 -0.000706222)
(-0.00320124 0.0039991 -0.00170924)
(-0.0022824 0.0028641 -0.00110108)
(-0.00267788 0.00350185 -0.0011628)
(-0.00691039 0.00873475 -0.00302495)
(-0.0100183 0.0126858 -0.00394616)
(-0.014955 0.0179463 -0.00524453)
(-0.00974559 0.0123784 -0.00270748)
(-0.00556271 0.00718525 -0.00120688)
(-0.00174113 0.00229559 -0.000244998)
(-0.00235592 0.00309897 -0.000523063)
(-0.00303815 0.00387919 -0.000897582)
(-0.00280147 0.00389764 -0.000994465)
(-0.00225451 0.00293449 -0.000892697)
(-0.00269407 0.00318915 -0.000966035)
(-0.00375395 0.00353905 -0.00111662)
(-0.00471488 0.00450895 -0.00188719)
(-0.00478592 0.00457511 -0.00201712)
(-0.00400785 0.00405197 -0.00185056)
(-0.00272084 0.00306745 -0.00124898)
(-0.00248852 0.00266546 -0.0012189)
(-0.0035368 0.00354137 -0.00147827)
(-0.00452895 0.0038799 -0.00229743)
(-0.00470217 0.00350844 -0.00240788)
(-0.00406031 0.0025408 -0.00197391)
(-0.0060721 0.00356311 -0.00269747)
(-0.00449036 0.00248364 -0.00264649)
(-0.00319591 0.00196601 -0.00237264)
(-0.00201969 0.00140176 -0.00186689)
(-0.00232343 0.00113827 -0.00175895)
(-0.00229241 0.000420701 -0.00119846)
(-0.00344078 0.00087957 -0.00163021)
(-0.00137745 0.000237684 -0.000973826)
(-0.00562285 0.00268315 -0.00294235)
(-0.00948227 0.00656239 -0.00477824)
(-0.00908972 0.00622135 -0.00323652)
(-0.0161889 0.00878193 -0.00532807)
(-0.0123216 0.0072918 -0.00308596)
(-0.00446408 0.00232601 -0.00119928)
(-0.00536762 0.00250684 -0.0013412)
(-0.0040882 0.00185112 -0.00139602)
(-0.00360632 0.00161921 -0.00137253)
(-0.00313692 0.000857566 -0.00127812)
(-0.00597353 0.00218608 -0.00190235)
(-0.0047721 0.00167621 -0.00125387)
(-0.00519576 0.00238215 -0.00127955)
(-0.00505525 0.00267435 -0.00104088)
(-0.00517107 0.00291224 -0.00117831)
(-0.00461334 0.00270677 -0.000843136)
(-0.0054932 0.00408706 -0.000991291)
(-0.00325886 0.00303673 -0.000320101)
(-0.00370799 0.00398228 -0.000451367)
(-0.00240637 0.00293693 -0.000123027)
(-0.00762132 0.0084126 -0.0010438)
(-0.00809843 0.00960595 -0.0010749)
(-0.00733236 0.00936903 -0.00110546)
(-0.00596891 0.00781699 -0.000976656)
(-0.0104934 0.013462 -0.00244534)
(-0.0128914 0.0157223 -0.00268912)
(-0.0139836 0.0162485 -0.00370211)
(-0.00799225 0.00985769 -0.00170475)
(-0.00254657 0.0035259 -0.000411343)
(-0.00263967 0.00317252 -0.000454023)
(-0.00258885 0.0029592 -0.000722926)
(-0.00260708 0.00314219 -0.000955413)
(-0.00358265 0.00358384 -0.000979428)
(-0.00467999 0.00451492 -0.00182709)
(-0.00379152 0.00378917 -0.00153809)
(-0.00475225 0.00426001 -0.0015865)
(-0.00609651 0.00450699 -0.00170046)
(-0.00743088 0.00566732 -0.00274424)
(-0.00707578 0.0054593 -0.00283722)
(-0.00517702 0.0042318 -0.00232511)
(-0.00502412 0.00402065 -0.00223727)
(-0.00459242 0.00384702 -0.00187232)
(-0.0038289 0.00308061 -0.00168578)
(-0.00472218 0.00347989 -0.00192721)
(-0.00473469 0.00297789 -0.00157465)
(-0.00695291 0.00455438 -0.00211986)