/*--------------------------------*- C++ -*----------------------------------*\
| =========                 |                                                 |
| \\      /  F ield         | OpenFOAM: The Open Source CFD Toolbox           |
|  \\    /   O peration     | Version:  5.0                                   |
|   \\  /    A nd           | Web:      www.OpenFOAM.org                      |
|    \\/     M anipulation  |                                                 |
\*---------------------------------------------------------------------------*/
FoamFile
{
    version     2.0;
    format      ascii;
    class       volVectorField;
    location    "60";
    object      wallShearStressRest;
}
// * * * * * * * * * * * * * * * * * * * * * * * * * * * * * * * * * * * * * //

dimensions      [1 -1 -2 0 0 0 0];

internalField   uniform (0 0 0);

boundaryField
{
    Wall_Aorta
    {
        type            calculated;
        value           nonuniform List<vector> 
10317
(
(0.0800449 0.364894 -0.303027)
(0.0511773 0.223886 -0.284305)
(0.0281847 0.0761031 -0.11916)
(0.00635158 0.0318433 -0.0708521)
(4.34445e-07 -9.42663e-07 -1.66855e-06)
(2.88186e-07 5.11564e-07 -7.45052e-07)
(-0.0617159 0.0486331 0.0164343)
(-0.0648473 0.0499957 0.0182646)
(-0.355739 0.155547 -0.0241635)
(-0.35379 0.157783 -0.0584171)
(-0.788752 0.236556 -0.0778151)
(-0.724439 0.235307 -0.0577923)
(-0.0522576 0.325093 -0.129432)
(-0.0491833 0.262351 -0.110624)
(0.145672 2.11594 -0.587168)
(0.399275 2.30233 -0.538116)
(0.340118 1.45799 -0.305562)
(0.422499 1.28813 -0.332581)
(0.33776 1.05843 -0.0955895)
(0.33541 1.3863 -0.332743)
(-0.322792 0.180664 -0.0110465)
(-0.328964 0.175817 0.0175377)
(-0.286991 0.173434 0.0027873)
(-0.333556 0.200438 0.0327151)
(-0.151924 0.422808 0.0470635)
(-0.124266 0.403203 0.0441087)
(0.701659 2.16426 0.653409)
(1.17502 2.08562 0.570148)
(0.958221 1.53364 -0.440201)
(1.26624 1.59026 -0.327496)
(0.205079 0.389997 -0.173307)
(1.25707 1.30083 -0.22437)
(0.156437 0.341693 -0.145424)
(0.975088 1.43115 -0.299842)
(0.901686 1.58588 -0.351934)
(1.23231 1.40204 -0.380509)
(2.24486 4.06001 -1.89634)
(2.80997 1.59682 -0.568435)
(2.46634 1.57632 -0.248522)
(2.42088 2.02599 0.0158371)
(6.87886 5.10317 0.723306)
(8.44682 8.63691 1.10981)
(6.27668 7.25265 1.50762)
(9.48876 8.63661 1.40313)
(-0.827968 0.673391 0.167945)
(-0.809299 0.770178 0.158382)
(-0.159428 5.50304 1.25767)
(0.088227 5.6315 1.52142)
(-1.40723 2.43951 1.48361)
(-1.29123 2.49212 1.42591)
(-1.4769 2.39984 1.43553)
(2.73218 4.34023 -1.71593)
(1.15835 5.83727 -0.626082)
(1.28427 6.88192 -1.67482)
(1.50238 7.64615 -2.2378)
(2.29261 4.19148 -1.72382)
(0.961284 2.94406 -0.244347)
(1.64085 4.90181 -0.639092)
(3.43419 8.85516 -1.76428)
(0.333802 0.403879 -0.181888)
(0.311056 0.888447 -0.141792)
(0.570889 0.558279 0.0934442)
(0.623537 0.615838 0.115093)
(2.38667 3.75304 -1.29057)
(1.9476 3.57554 -1.44116)
(0.872893 1.2744 -0.398471)
(0.933713 1.4704 -0.520684)
(0.584524 1.90076 -0.10529)
(0.935408 2.11282 -0.31612)
(0.292948 1.39542 -0.124684)
(0.334592 1.60317 -0.364001)
(0.00163865 1.03615 -0.0850222)
(-0.0264405 0.830664 -0.0592198)
(0.741912 7.31272 -1.05709)
(-0.000313224 0.000134819 0.00474128)
(-0.00285945 0.130028 -0.130826)
(-0.0400938 0.144153 -0.121356)
(-0.0153503 0.163525 -0.173082)
(-0.0278573 0.0977903 -0.0772305)
(-0.0677401 0.105853 -0.0741081)
(-0.0460734 0.120947 -0.109633)
(-0.0147141 0.0951454 -0.089822)
(-0.0288782 0.0740564 -0.0450445)
(-0.067368 0.097089 -0.0529398)
(-0.0214478 0.0619042 -0.0473845)
(-0.0297664 0.0613974 -0.0271731)
(-0.0653571 0.080521 -0.0337413)
(-0.0104792 0.0241503 -0.0176513)
(-0.0253763 0.0315073 -0.020956)
(-0.0192517 0.0327354 -0.0317018)
(0.00615738 0.143916 -0.165798)
(0.0107521 0.199725 -0.2283)
(0.0378514 0.155736 -0.197027)
(0.00837459 0.0776976 -0.1028)
(0.0497316 0.185807 -0.251196)
(0.120783 0.33873 -0.306121)
(0.072452 0.275738 -0.379113)
(0.0663199 0.0754084 -0.141001)
(0.0937721 0.0927956 -0.17187)
(0.127809 0.159067 -0.219086)
(0.12963 0.218885 -0.407277)
(-0.000122933 0.00270761 -0.00401675)
(-0.000815569 0.00539416 -0.00572428)
(0.000534133 0.00547118 -0.00874594)
(-0.00180062 0.0219735 -0.0320877)
(-0.0121063 0.0365112 -0.0393786)
(-0.00510885 0.037933 -0.0668962)
(-0.000329446 0.012803 -0.0283571)
(-0.00330846 0.0151085 -0.0118657)
(1.54691e-05 0.000871988 -0.00184624)
(0.000677872 0.00166784 -0.00522118)
(4.80616e-06 0.000570917 -0.000578722)
(0.000298719 0.000603418 -0.000609638)
(9.03057e-05 0.000149077 -0.00214751)
(0.00176589 0.00738499 -0.0258798)
(0.0206943 0.0260194 -0.0745558)
(0.00485017 0.00245776 -0.0204715)
(0.0136982 0.00199278 -0.0294403)
(0.0331888 0.017592 -0.0777877)
(0.05039 0.00668262 -0.0918817)
(0.00135288 0.00159296 -0.00179768)
(0.00817739 0.00261179 -0.0179223)
(-0.0273923 0.0493295 -0.00908117)
(-0.0610174 0.0697518 -0.0149978)
(-0.0388928 0.0416036 -0.0140033)
(-0.00773751 0.0148208 -0.00469804)
(-0.0233059 0.0246681 -0.00893579)
(-0.00461128 0.0101249 -0.000124898)
(-0.0138646 0.0198902 -0.00326089)
(-0.0069404 0.00785551 -0.001885)
(-0.0280928 0.0291503 -0.00655525)
(-0.00630778 0.0109033 -0.000607576)
(-0.017345 0.0200734 -0.000139812)
(-0.00841 0.00928186 0.000394564)
(-2.98082e-06 9.15427e-06 0.000124397)
(-4.1688e-05 -9.49448e-07 0.000178584)
(-0.000162028 3.31688e-05 0.000336588)
(1.7561e-05 -4.76208e-05 8.56659e-05)
(8.4867e-05 -0.000122906 0.000116098)
(9.49591e-06 -3.26614e-05 0.000176167)
(-5.78829e-06 -1.14188e-05 2.85779e-05)
(7.49159e-06 -3.41736e-05 1.47841e-05)
(6.26704e-05 -0.000116136 4.21728e-05)
(2.3726e-05 -2.68346e-05 2.38512e-05)
(2.35173e-06 -3.39836e-06 1.1727e-05)
(-0.00117056 0.00296497 -0.00234368)
(-0.00392834 0.00515122 -0.00368224)
(-0.00227884 0.00485312 -0.00599183)
(-0.000359077 0.00115007 -0.000727353)
(-0.00033009 0.00105249 5.66187e-05)
(-0.00254911 0.00300356 -0.000674142)
(1.63523e-05 -1.61878e-05 0.000191193)
(-1.00374e-08 -3.42847e-05 8.35882e-05)
(-5.49466e-05 3.52534e-05 0.000172297)
(-0.000228863 2.83577e-05 0.00028412)
(-0.000200666 0.000162327 0.000210446)
(-0.000266768 0.000220383 0.000267697)
(-0.000261009 6.99016e-05 0.000307917)
(-0.000276859 8.06006e-05 0.000204039)
(-0.000449012 -4.64486e-06 0.000428121)
(-6.52066e-05 -8.23736e-05 0.000345622)
(0.000373516 0.00132265 -0.00284384)
(0.000316099 0.000410925 0.000124779)
(-0.000814045 0.00185825 -0.000261398)
(0.000124346 0.00022088 -0.000278803)
(8.68249e-05 -0.000155095 0.000129674)
(0.00025257 -0.000270078 0.000182689)
(0.000194547 -0.00012091 0.000119699)
(0.000267194 -0.000225309 6.1326e-05)
(0.000389716 -0.000559129 -0.00028188)
(0.000330438 -0.000263485 -5.0908e-05)
(-0.00266478 0.0029537 -0.00151909)
(0.000629541 0.000284987 -0.000117061)
(-0.0006411 0.00118537 3.43465e-05)
(0.000257891 0.000118889 -0.000399669)
(-0.0021503 0.00273258 -0.000747682)
(0.000139884 0.000833291 -0.000426223)
(0.000527559 -0.000569445 -0.000241684)
(0.000735744 -0.000377741 -0.000446892)
(0.000163255 -0.000166679 3.99808e-05)
(0.000710241 -0.000395728 -0.000271769)
(0.000678353 6.79514e-05 -0.000565441)
(0.000251589 -0.000267823 0.000142639)
(0.00041239 -0.000271676 5.3623e-06)
(-8.56817e-07 -3.53826e-06 9.8189e-07)
(9.46139e-06 -1.07152e-05 1.33715e-05)
(4.86269e-07 -5.0169e-07 1.5544e-06)
(2.0486e-05 -4.66681e-05 1.70214e-05)
(8.91212e-05 -0.000112193 1.26331e-05)
(3.6356e-05 -3.98675e-05 1.21085e-05)
(0.000196465 -0.000203849 -6.62623e-07)
(0.000103682 -9.13336e-05 1.58388e-05)
(5.2224e-06 -2.70262e-06 6.49712e-06)
(2.75446e-05 -2.73953e-05 9.6455e-06)
(0.000374278 -0.000225025 3.97838e-05)
(0.0002686 -0.000335199 1.84647e-05)
(0.000212171 -0.000184454 3.19399e-05)
(0.00025534 -0.000201189 4.08771e-05)
(0.000117389 -0.000112895 1.90214e-05)
(8.39584e-06 2.36193e-05 4.98964e-05)
(1.45375e-06 6.61412e-06 5.2328e-05)
(-6.95926e-05 4.19415e-05 0.000205377)
(-2.5323e-07 4.2817e-06 1.42206e-06)
(2.97987e-06 2.06505e-06 4.96335e-06)
(2.93764e-06 4.81013e-07 3.39653e-06)
(-8.01947e-06 -8.74787e-06 1.3167e-05)
(7.08846e-07 -6.7524e-07 -7.00535e-09)
(1.06441e-06 -1.13013e-06 1.31536e-06)
(-4.70843e-07 4.02656e-07 3.41535e-06)
(2.00077e-07 -2.37551e-07 -3.61449e-07)
(-1.04257e-07 -4.02525e-07 -5.05656e-07)
(4.92925e-07 -2.02494e-07 9.03905e-07)
(-0.000424644 5.62463e-05 0.000298368)
(-0.000558714 0.000279945 0.000355144)
(-0.000482041 0.000287889 0.000159213)
(-1.9519e-05 3.83367e-05 0.00015577)
(-0.000198638 0.000133002 0.000359075)
(-9.25278e-05 0.000102386 0.00033565)
(-0.000684214 0.000656595 -0.000699011)
(-0.000660746 0.000633728 0.000259838)
(-0.000165566 0.000163328 -0.000824827)
(-0.000382847 0.000211689 0.000650224)
(-0.000631377 0.000619724 -0.000458167)
(-0.00056397 0.000459611 0.00019362)
(8.1265e-05 0.000579558 -0.000271861)
(3.69863e-06 -3.82147e-06 1.65425e-05)
(-1.29425e-05 -7.32546e-06 4.75189e-05)
(1.77443e-05 -1.74491e-05 9.03001e-05)
(5.03473e-06 -1.29051e-05 4.56607e-05)
(-1.73627e-05 -5.58624e-06 0.00011099)
(-4.53252e-07 -1.771e-06 -8.30573e-07)
(3.06776e-05 -2.75905e-05 3.00787e-05)
(8.69663e-06 -9.21563e-07 5.71171e-06)
(-1.53043e-05 -2.43511e-05 0.000238606)
(5.63198e-05 0.000197132 0.000490432)
(-4.14091e-06 2.51695e-05 0.000529786)
(2.82697e-05 -0.000161361 0.000312815)
(0.000104737 -0.000159485 0.000169653)
(6.99576e-05 -5.23536e-05 8.88609e-05)
(-3.64359e-07 4.23706e-07 -9.01609e-07)
(-8.5638e-07 6.00242e-07 -1.19258e-06)
(-7.38443e-07 2.87629e-07 -2.39666e-07)
(-7.20268e-08 4.53408e-07 -5.4673e-07)
(-2.43639e-08 3.41448e-07 -4.22294e-07)
(-3.26027e-07 4.3294e-07 -3.46908e-07)
(-7.14128e-07 7.25436e-07 -2.78043e-07)
(-8.29272e-07 1.40828e-06 1.12028e-06)
(-1.01086e-06 6.99558e-07 -3.36278e-08)
(-4.24808e-07 5.59586e-07 -2.87452e-07)
(-4.95668e-08 5.31593e-07 -3.24338e-07)
(-4.65696e-07 6.08832e-07 3.24499e-08)
(6.16546e-06 -1.04157e-05 7.65708e-06)
(-9.56896e-07 9.80524e-07 -1.24304e-06)
(2.01878e-05 -1.63874e-05 8.13776e-06)
(3.92525e-06 3.10985e-06 1.72733e-06)
(2.57296e-06 -2.24997e-06 3.87004e-06)
(3.26732e-07 -5.26912e-07 1.65263e-06)
(3.73611e-07 3.16516e-07 1.12478e-06)
(-8.27896e-07 1.2459e-06 9.36471e-07)
(-1.70932e-06 1.32979e-06 1.37755e-06)
(-2.87409e-07 1.55064e-06 -9.95684e-07)
(-5.19315e-07 1.72511e-06 -2.4442e-07)
(0.000118072 -0.000133958 6.26843e-05)
(5.89749e-05 -2.90099e-05 1.72919e-05)
(5.32413e-05 -5.04296e-05 1.28394e-05)
(0.275514 0.79591 -0.242113)
(0.256122 0.907967 -0.185624)
(0.296103 0.924063 -0.105857)
(0.263175 1.13673 -0.276625)
(0.302264 0.966403 -0.22765)
(0.304853 1.01143 -0.133813)
(0.341012 1.06232 -0.316657)
(0.405619 1.17044 -0.248945)
(0.470639 1.33974 -0.20788)
(0.420566 1.24223 -0.318848)
(0.442896 1.33253 -0.382105)
(0.493082 1.42241 -0.352157)
(0.476533 1.40113 -0.350579)
(0.562827 1.52363 -0.549727)
(0.543337 1.49857 -0.467773)
(0.422773 1.3195 -0.381881)
(0.362656 1.46675 -0.351137)
(0.466285 1.48965 -0.388228)
(0.383344 1.39663 -0.347944)
(0.486004 1.76973 -0.489829)
(0.396377 1.52373 -0.493781)
(-0.0360354 0.0897768 -0.0733571)
(-0.0513582 0.0735971 -0.0686256)
(-0.0356787 0.0829676 -0.0528013)
(-0.0378873 0.0811063 -0.043257)
(-0.0529707 0.0802529 -0.0663458)
(-0.0311111 0.0736435 -0.0226177)
(-0.0848448 0.109769 -0.0990352)
(-0.08273 0.0620976 -0.0883433)
(-0.069055 0.100725 -0.0963757)
(-0.0850956 0.0798651 -0.10137)
(-0.0622895 0.106312 -0.0843118)
(-0.11308 0.110357 -0.103015)
(-0.106611 0.0439326 -0.0815886)
(-0.0941807 0.0973608 -0.103242)
(-0.111142 0.132675 -0.110378)
(-0.136569 0.0821946 -0.103795)
(-0.0824408 0.112137 -0.0827892)
(-0.126103 0.0798983 -0.0827466)
(-0.082173 0.115424 -0.0731428)
(-0.0948806 0.0982257 -0.0971884)
(-0.137123 0.0756258 -0.0877908)
(-0.106495 0.111665 -0.0913956)
(-0.18602 0.107954 -0.107961)
(-0.172729 0.133387 -0.103491)
(-0.207209 0.0545428 -0.0766951)
(-0.189397 0.113048 -0.0941188)
(-0.207682 0.146237 -0.0858897)
(-0.241091 0.0758847 -0.0818709)
(-0.147171 0.132366 -0.0951865)
(-0.143638 0.0610083 -0.0914003)
(-0.150497 0.149799 -0.100333)
(-0.174167 0.0816166 -0.0914255)
(-0.162108 0.129728 -0.0641818)
(-0.163158 0.0590956 -0.0590606)
(-0.162898 0.14849 -0.0615366)
(-0.185843 0.0795644 -0.0572499)
(-0.191592 0.0935149 -0.0855802)
(-0.220638 0.091441 -0.0684314)
(-0.182708 0.150275 -0.0869715)
(-0.22794 0.0833887 -0.0860965)
(-0.183133 0.134955 -0.092118)
(-0.306859 0.131981 -0.0603396)
(-0.232918 0.153135 -0.0618998)
(-0.381867 0.187033 -0.0699539)
(-0.302099 0.182789 -0.0441699)
(-0.516039 0.273002 -0.0657541)
(-0.406713 0.181243 -0.0411348)
(-0.148526 0.108903 -0.0906406)
(-0.107593 0.10611 -0.0534177)
(-0.164749 0.114988 -0.0816634)
(-0.149459 0.123739 -0.0450482)
(-0.0863513 0.113124 -0.042813)
(-0.111418 0.126133 -0.0461584)
(-0.255472 0.14637 -0.054554)
(-0.19952 0.137274 -0.061041)
(-0.18604 0.12522 -0.00413399)
(-0.229513 0.15011 -0.0805705)
(-0.181671 0.142516 -0.0210216)
(-0.354537 0.168082 -0.0753455)
(-0.331006 0.197011 -0.0850784)
(-0.289993 0.146065 -0.0963438)
(-0.396675 0.17686 -0.0906248)
(-0.371377 0.272749 -0.149657)
(-0.52246 0.20513 -0.122638)
(-0.412371 0.231469 -0.0841908)
(-0.363328 0.143127 -0.0937944)
(-0.465576 0.338459 -0.101604)
(-0.622077 0.299316 -0.124764)
(-0.488201 0.304231 -0.0840843)
(-0.876263 0.565069 -0.102404)
(-0.671874 0.389482 -0.0133776)
(-0.688926 0.423023 -0.168053)
(-0.887959 0.600055 -0.135089)
(-0.223041 0.161767 -0.0560402)
(-0.281674 0.0741583 -0.0795855)
(-0.2877 0.128733 -0.0654386)
(-0.153519 0.129559 -0.0161028)
(-0.167915 0.0573771 -0.0300181)
(-0.169898 0.104104 -0.00269632)
(-0.146642 0.14657 -0.00938813)
(-0.180523 0.0878906 -0.0238139)
(-0.150136 0.111619 0.00574065)
(-0.133275 0.143396 -0.00542391)
(-0.177794 0.104506 0.0113046)
(-0.140192 0.118556 0.0261791)
(-0.243446 0.10266 -0.0384595)
(-0.182217 0.149743 -0.0224484)
(-0.211947 0.0854183 -0.0266997)
(-0.177951 0.131955 0.0207968)
(-0.310388 0.146831 -0.0421199)
(-0.268099 0.145276 -0.038008)
(-0.113508 0.132349 0.00487461)
(-0.144023 0.11766 0.022127)
(-0.0940297 0.108327 0.0224321)
(-0.209033 0.139527 -0.000470974)
(-0.135728 0.115897 -0.00275467)
(-0.411319 0.292249 -0.124917)
(-0.544948 0.232696 -0.169195)
(-0.491224 0.238678 -0.190272)
(-0.405831 0.155373 -0.0946326)
(-0.334364 0.213272 -0.0811316)
(-0.390151 0.129776 -0.0907197)
(-0.354521 0.164115 -0.0498503)
(-0.52904 0.209519 -0.122722)
(-0.721761 0.423246 -0.160893)
(-0.902606 0.581378 -0.157541)
(-0.590691 0.36903 -0.16262)
(-0.675371 0.308269 -0.142964)
(-0.559059 0.246536 -0.133366)
(-0.884164 0.51827 -0.124624)
(-0.396763 0.233021 -0.0969649)
(-0.421585 0.128487 -0.0830436)
(-0.310928 0.14581 -0.00762286)
(-0.593764 0.357933 -0.110576)
(-0.699385 0.355062 -0.099992)
(-0.514332 0.248092 -0.0334252)
(-0.466064 0.210961 -0.0831767)
(-0.376574 0.163885 -0.0506595)
(-0.48389 0.224265 -0.0263913)
(-0.262565 0.190555 -0.0451911)
(-0.321012 0.155256 -0.0231306)
(-0.246308 0.152123 0.00129256)
(-0.297105 0.171053 -0.0173849)
(-0.194435 0.14525 -0.00578758)
(-0.257979 0.188794 -0.0171363)
(-0.347908 0.186695 -0.0184309)
(-0.467926 0.241195 -0.00685187)
(-0.375982 0.242904 -0.0215153)
(-0.593242 0.377516 -0.0662244)
(-0.494195 0.286621 0.0154842)
(-0.0800905 0.0447258 0.00318278)
(-0.0778544 0.0408773 -0.000647527)
(-0.0753171 0.0399308 -0.00341779)
(-0.0783574 0.0544413 -0.00107633)
(-0.0799642 0.0415118 0.00275027)
(-0.072202 0.0419525 6.73472e-06)
(-0.0812456 0.049177 0.00615136)
(-0.0677177 0.0326617 0.00807743)
(-0.0689769 0.0385777 0.00156105)
(-0.076652 0.0473146 0.00309872)
(-0.0785862 0.0413433 -0.00461051)
(-0.0712409 0.0390697 -0.00218756)
(-0.075385 0.05127 0.000412279)
(-0.0695699 0.0359168 0.00320733)
(-0.0675211 0.0404639 -4.29055e-05)
(-0.0694335 0.0372853 0.00692852)
(-0.101245 0.0866513 0.0289015)
(-0.0887647 0.0497958 0.0284644)
(-0.0981615 0.0640443 0.0273547)
(-0.172179 0.110432 0.058982)
(-0.128072 0.0952516 0.0391179)
(-0.137196 0.0914164 0.0473356)
(-0.171072 0.147171 0.0365419)
(-0.134549 0.114573 0.0384439)
(-0.136609 0.126357 0.0467836)
(-0.120773 0.0923678 0.0407611)
(-0.231283 0.197228 0.0709012)
(-0.184691 0.142039 0.0479452)
(-0.33123 0.222411 0.099107)
(-0.24101 0.20782 0.0371247)
(-0.248399 0.178225 0.0697078)
(-0.379286 0.234552 0.0826849)
(-0.299786 0.215996 0.0366935)
(-0.300789 0.186651 0.0632144)
(-0.289629 0.186743 0.0732849)
(-0.199449 0.122943 0.0614422)
(-0.16333 0.105448 0.0440596)
(-0.234377 0.116501 0.0487359)
(-0.19153 0.117295 0.0525935)
(-0.193234 0.10122 0.0361607)
(-0.229563 0.16208 0.0759625)
(-0.263241 0.151546 0.073391)
(-0.0749651 0.0530573 0.0172788)
(-0.0668985 0.0493206 -0.000777644)
(-0.0607145 0.0446115 0.00321946)
(-0.0919363 0.0574656 0.0280784)
(-0.0720967 0.046316 0.00977276)
(-0.0686278 0.0464731 0.0101954)
(-0.0655627 0.0509321 0.00727739)
(-0.0951813 0.0744195 0.0134428)
(-0.089618 0.0597025 0.00296391)
(-0.0703781 0.0493339 0.00270998)
(-0.115598 0.0812378 0.0121835)
(-0.101712 0.0687599 0.0102989)
(-0.0946986 0.0657265 0.0131308)
(-0.100036 0.0726155 0.00460869)
(-0.103123 0.0576062 0.0323966)
(-0.0916922 0.0448852 0.0269252)
(-0.0960955 0.0562203 0.0277474)
(-0.0983309 0.0572422 0.0245259)
(-0.095498 0.0530424 0.0343039)
(-0.103615 0.0616729 0.0257103)
(-0.113378 0.0590241 0.0178483)
(-0.0957471 0.0517887 0.0263434)
(-0.0979981 0.0526937 0.0202527)
(-0.106932 0.0671247 0.0285291)
(-0.0937536 0.0605798 0.00967677)
(-0.078685 0.048241 0.0149864)
(-0.0662446 0.0475257 -0.00109014)
(-0.0693645 0.0408748 -0.00392559)
(-0.060578 0.0391676 -0.00783582)
(-0.0683382 0.0525813 0.00752258)
(-0.0643399 0.0459054 -0.00898996)
(-0.0572451 0.0429384 -0.00254575)
(-0.0645984 0.045974 -0.0042159)
(-0.0787237 0.0469255 -0.00594647)
(-0.0706245 0.0401679 -0.00100065)
(-0.0806688 0.0422649 -0.0022889)
(-0.069447 0.0451515 -0.00515064)
(-0.0823776 0.044845 -0.00424419)
(-0.0632013 0.0500658 -0.000142476)
(-0.0650046 0.0501741 -0.00316654)
(-0.0621934 0.0523404 0.00102299)
(-0.0653436 0.05523 -0.00162801)
(-0.0721406 0.0517103 -0.0052063)
(-0.0881719 0.0530993 -0.00592928)
(-0.073349 0.0585425 -0.00417907)
(-0.0917356 0.061753 -0.00785098)
(-0.0787728 0.0637236 -0.00258985)
(-0.0753084 0.0472349 -0.00101355)
(-0.0631939 0.0453387 -0.00614469)
(-0.0822772 0.0516214 -0.00747257)
(-0.0845612 0.066657 0.00221672)
(-0.088848 0.0502112 -0.0015612)
(-0.0986428 0.0528863 0.0341374)
(-0.0848831 0.0508276 0.0222871)
(-0.0828715 0.0491089 0.0184551)
(-0.104929 0.0596963 0.0359443)
(-0.085847 0.0552035 0.0157836)
(-0.0749104 0.0508166 0.01629)
(-0.0642738 0.0509244 0.00728768)
(-0.074131 0.0520948 0.0165697)
(-0.0616597 0.0517695 0.00986475)
(-0.115045 0.0586659 0.0307537)
(-0.0904362 0.058021 0.0279847)
(-0.0880886 0.0507883 0.0109997)
(-0.0743056 0.0500905 0.0231908)
(-0.0758631 0.0489813 0.0135188)
(-0.0606657 0.0481897 0.00770525)
(-0.127097 0.0856888 0.042651)
(-0.112501 0.0616869 0.0284887)
(-0.127658 0.0720735 0.0464546)
(-0.144317 0.0740807 0.0490561)
(-0.154722 0.0726088 0.0619126)
(-0.113176 0.0639089 0.0377693)
(-0.0824922 0.0530565 0.0268617)
(-0.0606208 0.0536406 0.00288115)
(-0.0620587 0.0555077 0.000251609)
(-0.056717 0.0526819 0.00580145)
(-0.0579373 0.0554743 0.00312078)
(-0.0711686 0.0625605 -0.00257406)
(-0.115446 0.0712821 -0.0110925)
(-0.0922188 0.0691509 -0.000956717)
(-0.0850268 0.061841 -0.00579363)
(-0.0769957 0.0651972 -0.010332)
(-0.0684677 0.059051 0.00618879)
(-0.0613272 0.0555862 0.00156005)
(-0.0557443 0.0479189 0.0122444)
(-0.0542205 0.0488841 0.00385141)
(-0.058685 0.055587 -0.00205295)
(-0.0557258 0.0497392 0.0114903)
(-0.0522433 0.0502703 0.00568621)
(-0.111971 0.0783381 -0.00811537)
(-0.0971223 0.0702433 0.000786694)
(-0.0841853 0.0634017 -0.00324143)
(-0.0567056 0.0482103 0.0134621)
(-0.0619989 0.0578891 0.0058078)
(-0.0674314 0.0454308 0.00983766)
(-0.0531439 0.0475144 0.00998356)
(-0.0724316 0.0669629 0.000605696)
(-0.0816471 0.0497672 0.0101302)
(-0.0815122 0.0755796 -0.00518405)
(-0.0777601 0.0585638 0.00175924)
(-0.0631106 0.0541439 0.00474948)
(-0.088656 0.0679327 0.00384469)
(-0.103761 0.0847077 -0.00349747)
(-0.0918271 0.0695335 -0.00564258)
(-0.0881762 0.0694274 0.00169977)
(-0.0785421 0.0587229 0.00380071)
(-0.0800436 0.0419061 0.00317053)
(-0.080407 0.0613627 0.00350507)
(-0.0818957 0.0427311 0.00372017)
(-0.0745109 0.0523866 0.00430703)
(-0.0677053 0.0367022 0.00449606)
(-0.0665293 0.0351631 0.00739036)
(-0.0746309 0.0536593 0.00409757)
(-0.0672253 0.0376233 0.00650542)
(-0.0654915 0.03667 0.00694834)
(-0.0794073 0.0594276 0.00349334)
(-0.0814267 0.0430275 0.00446954)
(-0.0812811 0.0579257 0.00297731)
(-0.0716123 0.0406135 6.23646e-05)
(-0.069283 0.0481567 0.00596112)
(-0.0739549 0.0508994 0.00555537)
(-0.0687818 0.0359931 0.00532798)
(-0.0654549 0.0415748 0.00654497)
(-0.0659912 0.0396056 0.00562915)
(-0.070514 0.0474673 0.0022913)
(-0.063915 0.0359684 0.00290916)
(-0.0632879 0.0398013 0.00530076)
(-0.0757693 0.0464116 0.00491057)
(-0.0699144 0.0447724 -0.00126103)
(-0.0747462 0.045352 -0.000543083)
(-0.0685026 0.0385762 0.00736982)
(-0.0626186 0.0393675 0.00298274)
(-0.101355 0.0817187 0.0247317)
(-0.094918 0.0460384 0.0206917)
(-0.109645 0.0892892 0.0207503)
(-0.102753 0.0534647 0.0216488)
(-0.128816 0.0982008 0.0178648)
(-0.117981 0.0620794 0.0112979)
(-0.11389 0.0812322 0.0126891)
(-0.361221 0.253432 0.0225315)
(-0.317603 0.220885 0.0461307)
(-0.322906 0.225151 0.0198156)
(-0.336252 0.250466 0.0325737)
(-0.319815 0.22208 0.0607521)
(-0.348399 0.231581 0.0293457)
(-0.305059 0.214181 0.0439462)
(-0.276975 0.194159 0.0348173)
(-0.373409 0.258959 0.0349219)
(-0.371022 0.219901 0.0351727)
(-0.370252 0.236054 0.0476818)
(-0.331476 0.220123 0.034625)
(-0.324518 0.214901 0.035432)
(-0.384003 0.260878 0.0317641)
(-0.394189 0.222505 0.0483389)
(-0.379621 0.235124 0.037567)
(-0.35878 0.220314 0.0279694)
(-0.321198 0.199209 0.0412329)
(-0.373951 0.250149 0.0549936)
(-0.290009 0.244571 0.0462481)
(-0.212868 0.203362 0.0469027)
(-0.206332 0.180391 0.0452834)
(-0.286804 0.23732 0.0375982)
(-0.225633 0.190849 0.0367402)
(-0.175177 0.173977 0.0442401)
(-0.138219 0.107883 0.0324222)
(-0.18245 0.168384 0.0327157)
(-0.145201 0.10635 0.0305774)
(-0.342213 0.239141 0.0677725)
(-0.295723 0.233784 0.0456776)
(-0.275325 0.186516 0.0588642)
(-0.314517 0.26077 0.0408781)
(-0.294689 0.238781 0.0360059)
(-0.232894 0.191966 0.0347857)
(-0.31326 0.24104 0.0313641)
(-0.249093 0.206197 0.0266842)
(-0.236212 0.191702 0.0249269)
(-0.193467 0.1712 0.0323638)
(-0.160645 0.117675 0.0316141)
(-0.213246 0.180426 0.0219618)
(-0.16399 0.132297 0.0135932)
(-0.171347 0.148063 0.0262973)
(-0.151368 0.113514 0.0188772)
(-0.33548 0.271301 0.0331195)
(-0.384047 0.236341 0.0158706)
(-0.340479 0.239173 0.0318958)
(-0.302206 0.197604 0.0243806)
(-0.380661 0.22833 0.0189866)
(-0.342562 0.222976 0.0301573)
(-0.332304 0.203698 0.0511193)
(-0.185469 0.142295 -4.36867e-05)
(-0.141744 0.106128 0.00331368)
(-0.142591 0.108954 0.00754768)
(-0.267374 0.188419 -0.0075794)
(-0.202043 0.168476 0.030312)
(-0.20328 0.150619 0.00193217)
(-0.172867 0.129897 -0.00180439)
(-0.351286 0.212051 -0.00342264)
(-0.279347 0.220152 0.0482105)
(-0.279398 0.182464 0.0119415)
(-0.344626 0.243889 0.0405602)
(-0.332973 0.210036 0.00418159)
(-0.318654 0.196951 0.0130824)
(-0.253519 0.170334 -0.000960148)
(-0.197029 0.128111 -0.00303699)
(-0.272881 0.158753 0.00247991)
(-0.219798 0.123869 0.0007475)
(-0.116442 0.0806065 0.010542)
(-0.106746 0.0691751 0.00817465)
(-0.106355 0.0740274 0.00412642)
(-0.120125 0.0825666 0.00449793)
(-0.110908 0.071547 0.00636571)
(-0.110735 0.0762747 0.00419679)
(-0.099513 0.063012 0.0170088)
(-0.104651 0.0515844 0.0181293)
(-0.0880836 0.0485879 0.0233172)
(-0.121144 0.0729412 0.0134817)
(-0.108872 0.0726944 0.0142116)
(-0.111632 0.0555162 0.0139756)
(-0.12529 0.0750736 0.00793722)
(-0.121005 0.0826764 0.00232799)
(-0.110589 0.0714272 0.00117088)
(-0.105501 0.0701066 0.000638632)
(-0.108467 0.0778649 0.00274643)
(-0.113209 0.0792171 -0.00568791)
(-0.106586 0.0672831 0.000935961)
(-0.0943264 0.0621501 -0.000942609)
(-0.120979 0.0803869 0.0104996)
(-0.119572 0.0596115 0.0091788)
(-0.112234 0.0728435 0.00964469)
(-0.131341 0.0791868 0.00483783)
(-0.13054 0.0868601 -0.00246727)
(-0.118432 0.0689168 0.00018574)
(-0.106119 0.0675727 0.00380573)
(-0.126393 0.0887548 -0.00159494)
(-0.123367 0.0693309 0.0121852)
(-0.110846 0.0739757 0.00450986)
(-0.118608 0.0791388 0.00434725)
(-0.0890139 0.0689451 0.003069)
(-0.090051 0.051124 0.00213446)
(-0.0926499 0.0713224 0.0028206)
(-0.0923647 0.0529545 0.00321703)
(-0.0902425 0.0699843 0.00183029)
(-0.0889683 0.0511832 0.00346153)
(-0.0910846 0.0702638 0.00205696)
(-0.0881794 0.0524136 0.00176832)
(-0.0797854 0.0552606 0.00199203)
(-0.0962211 0.0655118 0.00848262)
(-0.105768 0.0672699 0.00476527)
(-0.104411 0.080544 -0.0059085)
(-0.107569 0.0633266 -0.0042105)
(-0.0931019 0.0758638 -0.000800233)
(-0.0895581 0.0601727 0.000525434)
(-0.0827674 0.062871 0.00434859)
(-0.102408 0.0762733 -0.00610695)
(-0.109445 0.0604167 -0.00612491)
(-0.097538 0.0765879 -0.00479091)
(-0.0956533 0.0629512 -0.00178807)
(-0.10993 0.0688438 -0.00133948)
(-0.101034 0.0683107 -0.00222375)
(-0.113853 0.0598074 -0.00506034)
(-0.0969175 0.0559189 -0.00607323)
(-0.0958629 0.0704239 -0.00401782)
(-0.106692 0.0568064 -0.00696623)
(-0.0983926 0.0718439 -0.00855669)
(-0.100141 0.0614329 -0.00471939)
(-0.0926074 0.0600606 -0.005908)
(-0.103267 0.0660852 -0.0123503)
(-0.0926714 0.0654165 -0.0069102)
(-0.0929814 0.0565919 -0.00461665)
(-0.0858384 0.0553861 -0.0104571)
(-0.117626 0.0789035 -0.00816278)
(-0.10989 0.0704799 0.00721534)
(-0.106955 0.0702378 -0.00430551)
(-0.117342 0.0782345 -0.00799121)
(-0.104954 0.0656004 -0.00458211)
(-0.104857 0.0658449 -0.00278838)
(-0.107374 0.0742956 -0.00158376)
(-0.101652 0.0673759 -0.0164331)
(-0.107837 0.0681562 -0.00929641)
(-0.114912 0.0678803 -0.0158013)
(-0.0965558 0.0614936 -0.00394903)
(-0.0902323 0.0545892 -0.00912012)
(-0.0874943 0.0605124 -0.0042949)
(-0.0753958 0.046368 0.00771798)
(-0.0720925 0.0500659 0.00492405)
(-0.101442 0.0709799 -0.00978305)
(-0.0927801 0.0584418 0.00649754)
(-0.0853237 0.0554559 -0.00248676)
(-0.0835889 0.0547914 -0.00692892)
(-0.0716167 0.0470427 0.00703278)
(-0.065158 0.04268 0.00269554)
(-0.0777458 0.0474824 0.00512967)
(-0.0712633 0.0445164 -0.000809667)
(-0.0731081 0.0422866 0.00101148)
(-0.0651631 0.0377274 0.00689451)
(-0.0609723 0.0362288 0.00667302)
(-0.0701556 0.0460865 0.00578405)
(-0.0631249 0.0385543 -0.000781295)
(-0.0627668 0.0374502 0.0043543)
(-0.101741 0.0632119 -0.0155225)
(-0.0842368 0.0556959 0.00175179)
(-0.0737184 0.0469513 -0.00497488)
(-0.0670322 0.0446427 -0.00250497)
(-0.0795961 0.0521345 -0.00952742)
(-0.0674009 0.0440265 -0.00415652)
(-0.0612414 0.0394997 0.00166421)
(-0.0611179 0.0361324 0.00404747)
(-0.0620723 0.0404612 -0.00118805)
(-0.0618175 0.0395122 0.00219086)
(-0.126512 0.0924269 0.00603363)
(-0.12729 0.0941023 -0.0102173)
(-0.116418 0.0762656 -0.00708766)
(-0.145063 0.0986968 -0.00401727)
(-0.136895 0.0793168 -0.00402291)
(-0.111906 0.0746365 -0.00133253)
(-0.112476 0.0715813 -0.00226024)
(-0.122525 0.0735121 -0.0122017)
(-0.103086 0.0653513 -0.00292615)
(-0.100991 0.0607583 -0.00743935)
(-0.0957009 0.0599302 -0.0125663)
(-0.10807 0.0678953 -0.0110854)
(-0.09532 0.0610526 -0.0116439)
(-0.165356 0.100698 -0.00239696)
(-0.174709 0.09442 -0.00353259)
(-0.150599 0.0900127 -0.00169207)
(-0.147014 0.0807046 0.0104079)
(-0.120693 0.0825764 0.00465342)
(-0.116246 0.0700113 0.0175938)
(-0.133686 0.0767602 -0.00410386)
(-0.139554 0.0775395 -0.00369659)
(-0.121848 0.0709138 0.0019304)
(-0.114439 0.0694899 -0.00657306)
(-0.110422 0.064132 -0.00334715)
(-0.108656 0.0684754 -0.0100842)
(-0.101347 0.0614425 -0.0056086)
(-0.0816955 0.0523589 -0.00960803)
(-0.0708889 0.0482308 -0.00702908)
(-0.0873016 0.0559804 -0.0114639)
(-0.0885016 0.0600687 -0.0142643)
(-0.0785363 0.0495453 -0.00517683)
(-0.0960305 0.0637659 -0.00834944)
(-0.0785 0.0527173 -0.000505008)
(-0.0657734 0.0443526 -0.00390791)
(-0.0700315 0.049518 -0.00363376)
(-0.0624218 0.0406311 0.00394989)
(-0.0755158 0.0495717 -0.00139392)
(-0.0782539 0.0540067 -0.0144845)
(-0.0671794 0.0447441 -0.0090001)
(-0.110116 0.0675086 -0.0124891)
(-0.0932726 0.0589447 -0.00491893)
(-0.113868 0.0692314 0.000396676)
(-0.113805 0.0652081 -0.00935902)
(-0.106536 0.0638402 -0.0110559)
(-0.101899 0.0610869 -0.00656189)
(-0.103459 0.0639359 -0.0165658)
(-0.0891084 0.0554974 -0.0144991)
(-0.091256 0.0637097 -0.00605773)
(-0.0909968 0.0579675 -0.00776587)
(-0.0825957 0.0576867 -0.0157366)
(-0.0200206 0.0505134 -0.0361708)
(-0.0209905 0.0490477 -0.0451434)
(-0.0156308 0.0436857 -0.0218037)
(-0.0346936 0.0519719 -0.0257109)
(-0.0347795 0.048294 -0.0385317)
(-0.0238228 0.0476282 -0.0214591)
(-0.00998768 0.041638 -0.0217354)
(-0.0373346 0.0699681 -0.0524114)
(-0.0376602 0.0581445 -0.0546677)
(-0.0283806 0.0673701 -0.0442189)
(-0.0770164 0.10034 -0.0641297)
(-0.0698974 0.0686514 -0.0636111)
(-0.0531341 0.0826789 -0.0590503)
(-0.0658625 0.0796651 -0.0800798)
(-0.0710649 0.0670888 -0.0162039)
(-0.0670367 0.052311 -0.0180978)
(-0.0569872 0.0577328 -0.0156113)
(-0.0676 0.0618228 -0.0355298)
(-0.046229 0.0616037 -0.0208177)
(-0.0848732 0.0986905 -0.0465801)
(-0.0981329 0.0832001 -0.0441893)
(-0.065322 0.0778328 -0.0396517)
(-0.0800447 0.0819877 -0.0192568)
(-0.0956786 0.0727368 -0.0274588)
(-0.0509722 0.0698762 -0.0410892)
(-0.0567576 0.0649568 -0.0567763)
(-0.0385172 0.066588 -0.0383278)
(-0.0608493 0.0284939 0.0110828)
(-0.0565606 0.0201467 0.00663035)
(-0.0542753 0.020988 0.00738174)
(-0.0552949 0.0277973 0.000597353)
(-0.0538939 0.0312962 0.0076238)
(-0.0692042 0.0291864 0.0131381)
(-0.0600617 0.0209759 0.00607883)
(-0.0608531 0.0210969 0.00806544)
(-0.0771076 0.035069 0.00829628)
(-0.0801752 0.0351555 0.0100368)
(-0.0770553 0.0271905 0.0109902)
(-0.0631991 0.0223867 0.0108003)
(-0.0562532 0.0293273 0.00469254)
(-0.073302 0.0231616 0.0101675)
(-0.0599479 0.032346 0.00408616)
(-0.0631587 0.033464 0.0122078)
(-0.0612458 0.0228682 0.00972551)
(-0.058559 0.023774 0.010606)
(-0.0533306 0.0311901 0.00799823)
(-0.0517793 0.019409 0.00961279)
(-0.0524037 0.0252748 0.0102558)
(-0.0658059 0.0299771 0.0077066)
(-0.0636787 0.0448574 0.00263007)
(-0.075938 0.0428955 -0.00371813)