/*--------------------------------*- C++ -*----------------------------------*\
| =========                 |                                                 |
| \\      /  F ield         | OpenFOAM: The Open Source CFD Toolbox           |
|  \\    /   O peration     | Version:  5.0                                   |
|   \\  /    A nd           | Web:      www.OpenFOAM.org                      |
|    \\/     M anipulation  |                                                 |
\*---------------------------------------------------------------------------*/
FoamFile
{
    version     2.0;
    format      ascii;
    class       volVectorField;
    location    "60";
    object      wallShearStressHyper;
}
// * * * * * * * * * * * * * * * * * * * * * * * * * * * * * * * * * * * * * //

dimensions      [1 -1 -2 0 0 0 0];

internalField   uniform (0 0 0);

boundaryField
{
    Wall_Aorta
    {
        type            calculated;
        value           nonuniform List<vector> 
10317
(
(0.222211 0.967615 -0.902338)
(0.107085 0.596219 -0.862317)
(0.060677 0.196605 -0.351128)
(-0.00783017 0.0820297 -0.199254)
(4.53486e-08 -3.96506e-06 -8.61577e-06)
(-7.32563e-07 3.46327e-06 -4.44836e-06)
(-0.161662 0.135731 0.0401071)
(-0.167189 0.138209 0.0464053)
(-0.782358 0.386938 -0.0754346)
(-0.798367 0.376197 -0.122559)
(-2.18351 0.570373 -0.242223)
(-1.85805 0.571343 -0.164573)
(-0.090438 0.958092 -0.373283)
(-0.0971711 0.765914 -0.347584)
(0.338052 5.64552 -1.59382)
(1.01791 6.22012 -1.38649)
(0.763067 3.64189 -0.682131)
(1.24006 3.00759 -0.670229)
(0.962053 2.39194 -0.201135)
(0.75015 3.20659 -0.699537)
(-0.871968 0.495137 -0.0182667)
(-0.879027 0.454545 0.0341325)
(-0.801773 0.48385 -0.0130034)
(-0.936971 0.566748 0.065713)
(-0.56759 1.42127 0.209318)
(-0.401706 1.30681 0.191161)
(2.57975 7.34805 2.40186)
(4.22583 6.92726 1.81171)
(3.18618 5.0639 -1.40912)
(4.02325 5.22669 -0.994165)
(0.382271 1.16885 -0.556999)
(4.17481 4.61045 -1.12251)
(0.173675 1.09095 -0.571791)
(3.11075 4.34566 -0.819279)
(3.08194 4.77496 -0.846428)
(3.89779 4.48202 -1.4755)
(7.0518 12.0853 -5.4093)
(7.7887 3.85871 -1.96835)
(6.96235 3.26945 -0.929546)
(6.85826 4.96189 -0.981765)
(16.5269 11.6338 2.66898)
(21.8345 20.248 3.59603)
(17.0397 18.5945 4.51047)
(24.5012 23.0304 4.29923)
(-3.03547 -2.75426 0.361983)
(-2.86833 -1.71691 -0.141144)
(-0.347517 9.77834 2.75381)
(-0.105515 10.4058 2.92948)
(-1.79858 6.18081 3.10751)
(-1.69774 6.95638 2.65498)
(-2.11366 6.43197 2.33413)
(8.17678 12.5323 -4.85136)
(4.03306 20.1593 -3.13723)
(4.15428 23.1573 -4.48116)
(4.64415 24.6493 -7.64238)
(7.57785 12.4295 -3.84622)
(3.51611 8.02905 0.268787)
(7.81956 18.2074 -0.952648)
(12.5672 31.8319 -3.41415)
(-0.199959 -0.739657 -0.0230252)
(0.121672 1.5336 0.515753)
(2.04725 -3.40387 -0.302373)
(2.97132 -2.1262 -1.27631)
(6.12418 10.8143 -2.44126)
(5.5266 10.4299 -2.65336)
(3.95357 6.13956 -1.62634)
(4.20233 6.87567 -2.2591)
(2.01316 6.48691 -0.248053)
(3.13398 7.33583 -0.711488)
(0.507087 4.49702 -0.377805)
(0.566854 5.06919 -0.92481)
(0.245121 2.15242 -0.0580123)
(0.0039749 1.30923 0.0275027)
(2.80354 22.9691 -5.17601)
(-0.000425436 0.000500862 0.000898372)
(0.0165267 0.304313 -0.389724)
(-0.0952925 0.33396 -0.347701)
(-0.0418693 0.407755 -0.538158)
(-0.0504095 0.208778 -0.220235)
(-0.161331 0.229802 -0.207119)
(-0.115481 0.280845 -0.329824)
(-0.0271725 0.210907 -0.25206)
(-0.0565983 0.157115 -0.114006)
(-0.1567 0.209636 -0.137654)
(-0.0501364 0.130915 -0.12071)
(-0.0550827 0.12908 -0.0614269)
(-0.146379 0.169625 -0.0783961)
(-0.0241945 0.0485665 -0.0329717)
(-0.0577784 0.0510165 -0.0443392)
(-0.0503757 0.0637114 -0.072329)
(0.0334638 0.348888 -0.49208)
(0.015119 0.498927 -0.692851)
(0.115167 0.421385 -0.595212)
(0.0168138 0.177872 -0.294346)
(0.177643 0.531755 -0.778659)
(0.311116 1.04278 -0.933744)
(0.150204 0.763246 -1.17589)
(0.183021 0.221221 -0.436274)
(0.32343 0.326401 -0.523054)
(0.460884 0.59368 -0.676146)
(0.353202 0.617002 -1.30994)
(-0.00361095 0.00761821 -0.00233859)
(-0.00583448 0.0130439 -0.0051875)
(-0.0050801 0.0150871 -0.00686489)
(-0.0138425 0.0445078 -0.0750339)
(-0.0406436 0.0669454 -0.100219)
(-0.0320169 0.0852275 -0.186419)
(-0.01389 0.0313863 -0.064645)
(-0.0134363 0.0336525 -0.012956)
(-0.00241892 0.00510624 0.0010274)
(-0.00595301 0.00706931 -0.000259716)
(-0.00157941 0.00364956 0.00222254)
(-0.000856069 0.00391513 0.002936)
(-0.00671459 0.00375728 0.00650853)
(-0.00976956 0.0215613 -0.0627508)
(0.0377164 0.0789028 -0.222063)
(0.000510354 0.0101957 -0.0519113)
(0.0299411 0.00894638 -0.0819569)
(0.0911851 0.0596782 -0.245065)
(0.159767 0.0127059 -0.291577)
(-0.000573967 0.0112812 0.00788189)
(0.0225018 0.0152282 -0.0336489)
(-0.0419885 0.100958 -0.0137868)
(-0.126659 0.137638 -0.0318779)
(-0.0709683 0.0818938 -0.0237472)
(-0.0124064 0.0258497 -0.000416611)
(-0.0424246 0.0386992 -0.0130613)
(-0.00128661 0.0149484 0.00554625)
(-0.0174773 0.0258071 -0.00252893)
(-0.00444961 0.0103186 -0.000368966)
(-0.0389202 0.0413723 -0.0177161)
(0.00410508 0.012887 0.000916284)
(-0.017336 0.0207303 -0.00208061)
(-0.000319595 0.00849202 -0.00353975)
(-4.0698e-06 4.94534e-05 0.000546195)
(-0.000178179 1.61728e-05 0.00078599)
(-0.000635769 0.000148136 0.00141718)
(8.46165e-05 -0.000191301 0.00038226)
(0.000346185 -0.000479284 0.000542527)
(2.40006e-05 -9.89124e-05 0.000788267)
(-1.98079e-05 -4.50528e-05 0.000113187)
(2.41971e-05 -0.00014655 4.76953e-05)
(0.000265539 -0.000530735 0.000176415)
(9.31272e-05 -0.000121798 9.21587e-05)
(5.27019e-06 -8.93892e-06 4.39584e-05)
(-0.00260148 0.00555699 0.00104226)
(-0.00760584 0.00673977 -0.00101932)
(-0.00642063 0.0103373 -0.00291991)
(-0.00210077 0.0024109 0.00383124)
(0.000884459 0.000190041 0.00373479)
(-0.00087471 0.00148554 0.00277398)
(0.000364251 -0.000418502 0.00181835)
(0.00073717 -0.00114036 0.00215319)
(-9.79657e-05 -5.10938e-06 0.00349201)
(-0.000938363 0.000159824 0.00242325)
(-0.00116904 0.000526591 0.00307435)
(-0.00190227 0.00111843 0.0043698)
(-0.001049 0.000433078 0.00175708)
(-0.00116254 0.000335338 0.00146503)
(-0.00237242 0.000689559 0.00353361)
(-0.000242869 -0.000403637 0.00165043)
(0.000166052 0.00470674 0.00281996)
(0.00254095 -0.00112108 0.0012351)
(0.00253856 -0.00127354 0.00097746)
(0.00268753 -0.00110671 2.98936e-05)
(0.000396247 -0.000783757 0.00061317)
(0.00159725 -0.00179327 0.000919093)
(0.000966807 -0.000713984 0.000651899)
(0.00124658 -0.00136537 0.000383356)
(0.00263448 -0.00287816 -0.000426018)
(0.00162423 -0.00128647 -0.000126846)
(0.00379562 -0.00239716 -0.00291237)
(0.00471541 -0.00217026 8.06625e-05)
(0.00465708 -0.0034641 -0.000650101)
(0.00424223 -0.00244196 -0.00169488)
(0.00654989 -0.00499098 -0.00416541)
(0.00742721 -0.00353799 -0.00235308)
(0.00301184 -0.00262486 -0.000770047)
(0.00464356 -0.00344266 -0.00185662)
(0.000706111 -0.000738295 0.000272862)
(0.00327362 -0.00267288 -0.000782706)
(0.00405132 -0.00189642 -0.000694808)
(0.00196552 -0.00146239 0.000897303)
(0.00199669 -0.00159075 4.86054e-05)
(-1.02816e-05 -1.40498e-05 -7.20681e-07)
(3.16134e-05 -3.20773e-05 5.93773e-05)
(-2.70227e-06 -4.42262e-07 7.09222e-06)
(6.31513e-05 -0.000200188 6.24206e-05)
(0.000364817 -0.000473095 4.51516e-05)
(0.000133947 -0.0001634 5.32781e-05)
(0.000808484 -0.000873231 9.132e-05)
(0.000367727 -0.000372145 8.48294e-05)
(1.53269e-05 3.22642e-06 2.80515e-05)
(7.57057e-05 -9.18302e-05 4.60001e-05)
(0.0018584 -0.0011343 0.000183193)
(0.00130306 -0.00154372 0.000106898)
(0.000933299 -0.000791275 0.00025862)
(0.00120774 -0.000851705 0.000275148)
(0.000487995 -0.000418777 0.000121013)
(4.45305e-05 0.000104331 0.00023122)
(-4.17069e-07 1.88655e-05 0.000247532)
(-0.000293723 0.000190388 0.000919646)
(1.34176e-06 1.69847e-05 1.16989e-06)
(1.44348e-05 1.10541e-05 2.22582e-05)
(1.05664e-05 -4.00552e-07 1.52395e-05)
(-3.61281e-05 -3.96644e-05 5.31662e-05)
(2.61553e-06 -1.84623e-06 -5.0274e-07)
(4.23046e-06 -2.31556e-06 5.12017e-06)
(-4.19745e-06 2.49999e-06 1.32875e-05)
(8.88093e-07 -3.50228e-07 -2.52006e-06)
(-1.29586e-06 -2.1797e-06 -3.25902e-06)
(1.55392e-06 -5.53893e-07 2.28283e-06)
(-0.00166625 0.000361519 0.00202753)
(-0.00224888 0.0011807 0.00232071)
(-0.00283368 0.00150123 0.00333438)
(-8.50671e-05 0.000136552 0.000698624)
(-0.000755028 0.000485499 0.00161492)
(-0.000374811 0.000382179 0.00137726)
(-0.00327275 0.00259332 0.00250504)
(-0.00276864 0.0019791 0.00375594)
(-0.00184147 0.00122485 0.00318386)
(-0.000998117 0.000772683 0.00293163)
(-0.000180391 0.000657723 0.00288736)
(-0.00116212 0.000638554 0.00360484)
(6.96275e-05 0.0012225 0.00561804)
(9.69543e-06 -1.79844e-05 7.52908e-05)
(-5.9915e-05 -2.41609e-05 0.000211727)
(6.28167e-05 -6.15163e-05 0.000394543)
(2.31547e-05 -5.77507e-05 0.000205589)
(-7.62064e-05 2.78499e-06 0.000479256)
(-4.33059e-06 -5.01178e-06 -4.9615e-06)
(0.000131314 -9.82168e-05 0.000120336)
(4.01659e-05 -3.80722e-06 2.92863e-05)
(7.21104e-05 -0.000143142 0.00106596)
(0.00174469 -0.000753195 0.002537)
(0.000628923 -9.20141e-05 0.00227482)
(0.000777646 -0.00118339 0.00162982)
(0.000862339 -0.000881354 0.000860629)
(0.000429382 -0.000201297 0.000415702)
(-3.07035e-06 3.74243e-06 -5.25568e-06)
(-5.34068e-06 5.03448e-06 -6.43524e-06)
(-4.54553e-06 2.96596e-06 -1.1685e-06)
(-8.3788e-07 3.26932e-06 -3.66121e-06)
(-6.00027e-07 2.00159e-06 -3.19218e-06)
(-2.19602e-06 3.84849e-06 -2.60781e-06)
(-5.57736e-06 6.07295e-06 -1.83268e-06)
(-8.37371e-06 9.91841e-06 5.23767e-06)
(-7.64003e-06 5.9931e-06 -3.01393e-08)
(-2.93744e-06 4.65e-06 -2.12295e-06)
(-1.71759e-06 4.49318e-06 -2.46882e-06)
(-4.41904e-06 5.1776e-06 -4.18456e-07)
(-4.744e-06 -3.95852e-05 3.59041e-05)
(-5.3939e-06 7.94751e-06 -5.723e-06)
(5.48648e-05 -4.69625e-05 2.22359e-05)
(1.42668e-05 1.17526e-05 1.09482e-05)
(8.29204e-06 -1.18969e-05 1.91722e-05)
(-1.81556e-06 -8.41794e-08 4.93045e-06)
(-2.98227e-06 6.07591e-06 3.68408e-06)
(-8.82562e-06 1.03379e-05 5.7739e-06)
(-8.05091e-06 1.08044e-05 4.71038e-06)
(-3.35418e-06 1.11311e-05 -4.89114e-06)
(-5.43258e-06 1.1378e-05 -2.84509e-08)
(0.000619528 -0.000557067 0.000230205)
(0.000261086 -8.12814e-05 7.01385e-05)
(0.000223313 -0.000187997 8.3639e-05)
(0.876881 2.11138 -0.702724)
(0.73719 2.33969 -0.427857)
(1.01949 2.3547 -0.211305)
(0.730398 2.83069 -0.577099)
(0.918319 2.20346 -0.42158)
(0.992306 2.46417 -0.153568)
(1.04619 2.66591 -0.977927)
(1.33551 2.98468 -0.68291)
(1.28957 3.44818 -0.381244)
(1.29903 3.08393 -0.653069)
(1.27237 3.38382 -1.17569)
(1.56944 3.74988 -1.01567)
(1.44709 3.59135 -0.799075)
(1.54743 3.85145 -1.65807)
(1.65708 3.89584 -1.30405)
(1.23149 3.29113 -0.900309)
(0.945483 3.70008 -0.766657)
(1.26406 3.45226 -0.711207)
(1.18729 3.58215 -0.705391)
(1.31184 4.43841 -1.16299)
(1.17702 3.81696 -1.14043)
(0.310063 0.14592 -0.153033)
(0.180913 -0.0148755 -0.0932165)
(0.223507 0.0979884 0.0172527)
(0.229391 0.0124394 -0.0137253)
(0.152641 -0.0516917 -0.0492885)
(0.23846 -0.0265271 0.110583)
(0.147216 0.169898 -0.399882)
(0.112534 -0.0559477 -0.346911)
(0.114257 0.194871 -0.340945)
(0.154373 -0.0190162 -0.282698)
(0.163569 0.190053 -0.239679)
(0.195255 0.110806 -0.33926)
(0.138051 -0.132046 -0.227705)
(0.124583 0.114884 -0.295364)
(0.032097 0.191831 -0.463264)
(-0.0110043 -0.0550511 -0.396745)
(0.294561 0.153214 -0.130553)
(0.121065 -0.0651716 -0.0683357)
(0.173155 0.106367 0.024412)
(0.101813 0.0400178 -0.173978)
(0.123719 -0.0695885 -0.213814)
(0.115267 0.14511 -0.193143)
(0.0324609 0.0133341 -0.141958)
(0.211172 0.195407 -0.257227)
(0.0742952 -0.104178 -0.139626)
(-0.000169152 0.146797 -0.168138)
(0.0694885 0.20062 -0.268097)
(-0.0303187 -0.0413888 -0.211176)
(0.0876488 0.103033 -0.352889)
(0.0683207 -0.125107 -0.304254)
(-0.162632 0.198161 -0.431379)
(-0.169354 -0.154244 -0.377184)
(-0.0157898 0.0771252 -0.281977)
(-0.020581 -0.180018 -0.252037)
(-0.261822 0.183052 -0.259151)
(-0.259562 -0.185968 -0.237231)
(0.00278793 -0.0270693 -0.232769)
(-0.119757 -0.0788884 -0.24567)
(0.221017 0.21997 -0.153115)
(0.0252817 -0.033402 -0.039988)
(0.086119 0.15216 -0.0205761)
(-0.189063 0.0743928 -0.00600503)
(-0.0192375 0.14322 0.0734112)
(-0.457706 0.222311 0.035637)
(-0.239873 0.2076 0.115128)
(-0.991176 0.472715 0.0362067)
(-0.685455 0.240203 0.101451)
(0.1077 -0.0594914 -0.0479575)
(0.138399 0.0262383 0.0849802)
(0.0742645 -0.0541888 -0.048774)
(0.101182 0.00172738 0.0914326)
(0.146801 -0.0146783 0.110054)
(0.101484 0.0289849 0.0976942)
(-0.148974 0.10094 -0.0800907)
(-0.085149 0.0144799 -0.0424209)
(-0.00850783 -0.0196025 0.18672)
(-0.13273 0.0923714 -0.104004)
(-0.0637485 0.0284289 0.141591)
(-0.563654 0.131795 -0.0101205)
(-0.587284 0.211482 -0.0506709)
(-0.104599 0.0970749 -0.179128)
(-0.397338 0.245118 -0.0767398)
(-0.22656 0.666573 -0.358752)
(-0.719057 0.30574 -0.246706)
(-0.520275 0.520416 -0.1228)
(-0.294552 0.125824 -0.196224)
(-0.469504 0.8711 -0.152302)
(-1.09748 0.586415 -0.162434)
(-0.731189 0.685709 0.0356168)
(-1.90896 1.38957 -0.205818)
(-1.4054 0.929968 0.182061)
(-1.27707 0.894169 -0.393818)
(-1.99206 1.52739 -0.347439)
(-0.027241 0.251001 -0.236341)
(-0.206403 -0.103373 -0.279271)
(-0.3793 0.140503 -0.309382)
(-0.0444199 0.093951 -0.10785)
(-0.103701 -0.212232 -0.184193)
(-0.241153 0.0586233 -0.0826456)
(-0.221323 0.20826 -0.00678419)
(-0.294474 -0.156932 -0.104277)
(-0.325685 0.139234 0.0939914)
(-0.132766 0.249888 0.0492278)
(-0.306335 -0.0592094 -0.0303237)
(-0.256482 0.1924 0.171976)
(-0.245259 -0.0590256 -0.21263)
(-0.159918 0.196268 -0.102605)
(-0.2882 -0.128779 -0.168111)
(-0.235137 0.14197 0.0244942)
(-0.521387 0.0476211 -0.244409)
(-0.522004 0.162051 -0.185757)
(-0.0138458 0.239783 0.0710191)
(-0.171835 0.0250654 0.0239801)
(-0.00210816 0.144777 0.0869504)
(-0.366824 0.0646653 -0.0654653)
(-0.110405 0.0967277 0.00967486)
(-0.401443 0.698345 -0.379021)
(-0.839844 0.372054 -0.472505)
(-0.858109 0.518861 -0.64154)
(-0.486603 0.11992 -0.299132)
(-0.434432 0.389863 -0.314151)
(-0.651989 -0.0187405 -0.345393)
(-0.684214 0.196194 -0.298767)
(-1.01418 0.263023 -0.467217)
(-1.41778 0.88327 -0.445543)
(-2.04005 1.46705 -0.455544)
(-1.09174 0.923449 -0.573888)
(-1.46016 0.559798 -0.557753)
(-1.20696 0.476289 -0.612131)
(-2.07188 1.23955 -0.463652)
(-0.71491 0.409711 -0.343684)
(-0.901646 -0.0568045 -0.351753)
(-0.585761 0.0896623 -0.0534053)
(-1.34695 0.881917 -0.453514)
(-1.73367 0.70413 -0.439159)
(-1.2494 0.462063 -0.248472)
(-1.03605 0.245993 -0.384093)
(-0.80997 0.163796 -0.18805)
(-1.18057 0.386077 -0.145324)
(-0.433564 0.349859 -0.185096)
(-0.676503 -0.000596295 -0.173638)
(-0.450308 0.163834 0.031678)
(-0.58807 0.17473 -0.0260152)
(-0.279869 0.149237 -0.0164396)
(-0.505825 0.312845 -0.00894335)
(-0.789459 0.26322 -0.0392764)
(-1.17895 0.453325 0.000150555)
(-0.926025 0.500527 -0.00130885)
(-1.80564 0.993898 -0.123307)
(-1.32353 0.659075 0.106047)
(-0.202641 0.107015 0.0142366)
(-0.197702 0.08758 0.00870361)
(-0.193928 0.091873 -0.0045824)
(-0.197959 0.133804 0.00545533)
(-0.196271 0.0949201 0.0149684)
(-0.181837 0.100186 0.00725251)
(-0.197761 0.112579 0.0245283)
(-0.163172 0.063016 0.0332295)
(-0.169752 0.0823537 0.0152122)
(-0.192506 0.114649 0.0137446)
(-0.193758 0.0912674 -0.00288027)
(-0.180481 0.0912087 -0.000227012)
(-0.182358 0.121245 0.0101243)
(-0.165638 0.0743464 0.0195851)
(-0.16615 0.0923597 0.00976544)
(-0.157653 0.0737775 0.0322462)
(-0.304889 0.242307 0.0854325)
(-0.249509 0.133129 0.0817631)
(-0.278603 0.174998 0.0774875)
(-0.525534 0.324075 0.165625)
(-0.368873 0.277076 0.108604)
(-0.402669 0.261662 0.143568)
(-0.527925 0.439158 0.103424)
(-0.386557 0.33597 0.109882)
(-0.40133 0.374407 0.139125)
(-0.347563 0.256961 0.119051)
(-0.704554 0.580583 0.214289)
(-0.541176 0.416926 0.141759)
(-0.979804 0.655968 0.285063)
(-0.690298 0.635223 0.108049)
(-0.730369 0.534517 0.224702)
(-1.08213 0.672284 0.235247)
(-0.859418 0.637903 0.119132)
(-0.8738 0.54691 0.203117)
(-0.848903 0.550721 0.22788)
(-0.603017 0.360868 0.173137)
(-0.484576 0.307722 0.134783)
(-0.705993 0.338126 0.129874)
(-0.568884 0.344886 0.147486)
(-0.576151 0.294399 0.119745)
(-0.669353 0.478084 0.227474)
(-0.772866 0.442512 0.214156)
(-0.205914 0.137261 0.0473906)
(-0.177337 0.123236 0.000252926)
(-0.161905 0.113117 0.00815378)
(-0.256926 0.149827 0.0770218)
(-0.195757 0.115004 0.0298265)
(-0.187061 0.117591 0.0281535)
(-0.173123 0.130538 0.0179524)
(-0.258934 0.193169 0.0428674)
(-0.233606 0.149456 0.0138251)
(-0.187449 0.123913 0.0120481)
(-0.309401 0.212203 0.0443286)
(-0.267511 0.178373 0.0376618)
(-0.251846 0.168981 0.0488736)
(-0.257588 0.18324 0.0224387)
(-0.297841 0.155884 0.0918164)
(-0.253741 0.115761 0.077614)
(-0.269128 0.148488 0.0821749)
(-0.267091 0.14691 0.0748251)
(-0.264163 0.135463 0.101625)
(-0.279037 0.160942 0.0773172)
(-0.298156 0.154177 0.0568373)
(-0.257459 0.133742 0.0848056)
(-0.264751 0.13498 0.0613108)
(-0.294291 0.175972 0.0839989)
(-0.250036 0.155237 0.0331379)
(-0.213673 0.121815 0.0487354)
(-0.170389 0.118744 -0.00118554)
(-0.176704 0.0980929 -0.00784514)
(-0.154441 0.0965458 -0.0204127)
(-0.182478 0.134323 0.0205985)
(-0.16645 0.11237 -0.0219855)
(-0.148923 0.108313 -0.0081741)
(-0.165404 0.114523 -0.0115412)
(-0.198622 0.111488 -0.00951556)
(-0.180159 0.0973684 -0.00144067)
(-0.20966 0.0981288 -0.00178178)
(-0.178014 0.110859 -0.0130117)
(-0.216266 0.107706 -0.00923631)
(-0.163551 0.127134 -0.00154711)
(-0.16664 0.12778 -0.00922859)
(-0.159827 0.13508 0.000813084)
(-0.166457 0.142926 -0.00443599)
(-0.185771 0.13068 -0.0137994)
(-0.233353 0.132397 -0.0145601)
(-0.188502 0.15157 -0.00984622)
(-0.244062 0.159015 -0.0192621)
(-0.206836 0.160626 -0.000488903)
(-0.193154 0.114017 0.00250097)
(-0.164199 0.111517 -0.0129371)
(-0.206075 0.123244 -0.0121321)
(-0.221362 0.16764 0.015639)
(-0.224159 0.120769 0.00511236)
(-0.28543 0.140651 0.091928)
(-0.236405 0.128355 0.0621861)
(-0.231556 0.127057 0.0502028)
(-0.3057 0.162469 0.0952375)
(-0.240067 0.146875 0.0402526)
(-0.202102 0.131159 0.0424072)
(-0.167698 0.132699 0.0165153)
(-0.199947 0.137705 0.0409197)
(-0.158824 0.137319 0.0226392)
(-0.338607 0.162205 0.0761482)
(-0.259213 0.162426 0.0709057)
(-0.247975 0.138428 0.0252539)
(-0.205698 0.141337 0.0571442)
(-0.205356 0.132876 0.0312669)
(-0.155628 0.130069 0.0161367)
(-0.373892 0.233055 0.11916)
(-0.318521 0.162299 0.0819872)
(-0.365395 0.196287 0.133476)
(-0.421109 0.207075 0.138395)
(-0.461872 0.208897 0.181316)
(-0.322868 0.1808 0.101447)
(-0.225542 0.14995 0.0686087)
(-0.153139 0.140126 0.00612516)
(-0.155235 0.145198 0.00210356)
(-0.1403 0.138557 0.0147677)
(-0.141166 0.145005 0.0117008)
(-0.180786 0.164509 -0.00235623)
(-0.309913 0.184518 -0.0168234)
(-0.245708 0.184549 0.00146931)
(-0.22398 0.164747 -0.00919861)
(-0.190238 0.168206 -0.0169739)
(-0.172567 0.15123 0.0223141)
(-0.151636 0.146928 0.0122643)
(-0.138775 0.130004 0.032632)
(-0.132575 0.129992 0.00971395)
(-0.136005 0.14222 0.00282645)
(-0.135859 0.130396 0.0330618)
(-0.125735 0.132791 0.0182915)
(-0.295488 0.197571 -0.00711827)
(-0.257314 0.178982 0.00895753)
(-0.221354 0.168012 0.005311)
(-0.139637 0.129126 0.0378299)
(-0.14559 0.144722 0.0226418)
(-0.166907 0.117997 0.0335489)
(-0.128038 0.124037 0.0323008)
(-0.173032 0.166579 0.0121299)
(-0.203622 0.126499 0.0358144)
(-0.199864 0.189273 -0.00232024)
(-0.195418 0.145124 0.0124543)
(-0.155412 0.138786 0.0240484)
(-0.224632 0.168084 0.0190636)
(-0.267177 0.214474 -0.00204557)
(-0.237946 0.17236 -0.00521326)
(-0.229247 0.179384 0.0185822)
(-0.196955 0.144243 0.019362)
(-0.193978 0.0952912 0.0176118)
(-0.199061 0.150978 0.0180494)
(-0.196036 0.098027 0.0184185)
(-0.177629 0.122863 0.0220001)
(-0.157656 0.0764426 0.0233731)
(-0.14569 0.0688875 0.0322467)
(-0.17482 0.126437 0.0208231)
(-0.153696 0.0798364 0.027691)
(-0.14007 0.0742896 0.0296892)
(-0.19447 0.146396 0.0161577)
(-0.193125 0.100243 0.0188429)
(-0.197665 0.14233 0.0127049)
(-0.169992 0.0944332 0.00629536)
(-0.165534 0.116697 0.0190103)
(-0.171597 0.120947 0.0220252)
(-0.15702 0.076188 0.0212466)
(-0.151075 0.0975705 0.0255005)
(-0.140381 0.0838297 0.0239057)
(-0.155336 0.109639 0.0124865)
(-0.139875 0.0749464 0.0145452)
(-0.142322 0.0922413 0.0181029)
(-0.174113 0.105639 0.0169667)
(-0.162208 0.106945 0.00170467)
(-0.169043 0.106894 0.00152272)
(-0.156299 0.0845263 0.018395)
(-0.143229 0.0906135 0.00748536)
(-0.304959 0.224745 0.0732935)
(-0.261922 0.117725 0.0617142)
(-0.325229 0.243619 0.0689768)
(-0.280426 0.137423 0.0663932)
(-0.376271 0.267025 0.0616497)
(-0.319044 0.163939 0.0415409)
(-0.311949 0.218973 0.0498764)
(-1.00098 0.708488 0.0600274)
(-0.873013 0.633251 0.118694)
(-0.893347 0.637329 0.057879)
(-0.92804 0.707617 0.0905831)
(-0.910944 0.639081 0.17519)
(-0.969167 0.644267 0.0849511)
(-0.844361 0.629647 0.118275)
(-0.775831 0.549988 0.102687)
(-1.02935 0.716207 0.0853798)
(-1.00746 0.603497 0.0807169)
(-1.02097 0.649817 0.123844)
(-0.908278 0.640362 0.0896219)
(-0.888365 0.591812 0.0833375)
(-1.04755 0.711381 0.0748864)
(-1.05958 0.59896 0.122471)
(-1.02894 0.634151 0.0818878)
(-0.965958 0.605984 0.0693815)
(-0.865913 0.52966 0.0903426)
(-1.00606 0.678908 0.140334)
(-0.867821 0.721068 0.14583)
(-0.600513 0.61773 0.135127)
(-0.603461 0.534941 0.140734)
(-0.845472 0.690792 0.113544)
(-0.634932 0.568435 0.106939)
(-0.541273 0.51153 0.132754)
(-0.392769 0.309254 0.096596)
(-0.559197 0.486372 0.10211)
(-0.409164 0.30135 0.0924168)
(-0.964565 0.682195 0.19906)
(-0.82938 0.702971 0.127583)
(-0.79125 0.54251 0.190261)
(-0.869964 0.759472 0.111663)
(-0.864135 0.690639 0.108653)
(-0.65501 0.567778 0.101311)
(-0.925487 0.696559 0.0914506)
(-0.702116 0.614704 0.0837113)
(-0.676012 0.552724 0.076095)
(-0.585303 0.490669 0.108115)
(-0.450826 0.33297 0.0999039)
(-0.638879 0.516248 0.0757154)
(-0.4606 0.384325 0.0509852)
(-0.486106 0.422175 0.0939536)
(-0.413524 0.315757 0.0635443)
(-0.920296 0.782523 0.0877739)
(-1.06166 0.662573 0.0355022)
(-0.937551 0.702724 0.0907385)
(-0.847069 0.557062 0.0505447)
(-1.03875 0.623243 0.0383655)
(-0.936436 0.626277 0.0805389)
(-0.923171 0.562692 0.124952)
(-0.545197 0.406887 0.006935)
(-0.392397 0.310718 0.0231457)
(-0.405346 0.317298 0.0322288)
(-0.797188 0.544729 -0.0174154)
(-0.565393 0.502216 0.103495)
(-0.584701 0.445234 0.0107453)
(-0.49716 0.379381 -0.00170076)
(-1.01598 0.608497 -0.00412493)
(-0.78184 0.651987 0.145427)
(-0.80671 0.536074 0.0293264)
(-0.956221 0.686503 0.100004)
(-0.949583 0.606892 0.00258198)
(-0.913107 0.56644 0.0317002)
(-0.731335 0.496992 -0.00423089)
(-0.570133 0.371608 -0.00859545)
(-0.789916 0.457908 0.00304597)
(-0.636756 0.35127 0.00342572)
(-0.30611 0.209744 0.0385571)
(-0.278469 0.179485 0.0320119)
(-0.269457 0.186326 0.0204618)
(-0.312862 0.21462 0.019782)
(-0.28687 0.186032 0.0246193)
(-0.277633 0.192369 0.0190451)
(-0.271677 0.16374 0.055157)
(-0.273941 0.132857 0.0561071)
(-0.235663 0.125051 0.072109)
(-0.312592 0.190199 0.0446364)
(-0.293881 0.189719 0.0462849)
(-0.290909 0.1431 0.0442151)
(-0.320947 0.195974 0.026732)
(-0.316548 0.214461 0.00946596)
(-0.285551 0.186814 0.00820852)
(-0.2729 0.182713 0.00355452)
(-0.272121 0.198282 0.0125802)
(-0.299603 0.205197 -0.0131343)
(-0.269538 0.172217 0.00692308)
(-0.243365 0.160238 -0.00118806)
(-0.325807 0.21169 0.0361672)
(-0.313258 0.155131 0.0309616)
(-0.298486 0.194131 0.0358614)
(-0.338783 0.207864 0.0165235)
(-0.350368 0.231517 -0.00316831)
(-0.312415 0.183052 0.00336873)
(-0.284455 0.181846 0.0136561)
(-0.34953 0.240238 0.00451934)
(-0.330082 0.186458 0.0415748)
(-0.301321 0.203322 0.0220608)
(-0.308672 0.208129 0.0132589)
(-0.229557 0.173417 0.0181509)
(-0.223836 0.123454 0.0150676)
(-0.236373 0.179558 0.0163148)
(-0.227227 0.128719 0.0166164)
(-0.229554 0.176591 0.0112463)
(-0.217972 0.125005 0.01489)
(-0.232853 0.177983 0.00870351)
(-0.216828 0.128139 0.00831043)
(-0.198867 0.138123 0.00813567)
(-0.241514 0.164353 0.0317191)
(-0.269237 0.169129 0.0211256)
(-0.274833 0.20859 -0.01109)
(-0.28191 0.156971 -0.00408759)
(-0.230534 0.187539 0.00616494)
(-0.226307 0.149244 0.010434)
(-0.208695 0.156491 0.0251959)
(-0.272259 0.198285 -0.0120194)
(-0.290145 0.150197 -0.0107527)
(-0.245035 0.191416 -0.00589315)
(-0.244508 0.159494 0.00295136)
(-0.285399 0.175932 0.00367094)
(-0.263175 0.178801 -0.00372296)
(-0.303251 0.155836 -0.00833139)
(-0.260873 0.148498 -0.0133482)
(-0.252073 0.182121 -0.00811741)
(-0.282351 0.144041 -0.0153593)
(-0.250071 0.18156 -0.0187035)
(-0.259385 0.157065 -0.00804487)
(-0.243507 0.155955 -0.0150288)
(-0.27199 0.173474 -0.0312278)
(-0.240578 0.167321 -0.0178792)
(-0.244545 0.147528 -0.0123834)
(-0.22662 0.14459 -0.0314798)
(-0.327672 0.219187 -0.0170322)
(-0.297664 0.192565 0.0239131)
(-0.296324 0.196365 -0.00794602)
(-0.321486 0.211241 -0.0208999)
(-0.28002 0.175242 -0.0110208)
(-0.285345 0.176882 -0.0080289)
(-0.280251 0.193642 -0.0030248)
(-0.272621 0.178949 -0.0444019)
(-0.296961 0.18652 -0.0245297)
(-0.323209 0.186484 -0.0405963)
(-0.262551 0.165107 -0.00957943)
(-0.250105 0.148687 -0.0246774)
(-0.217228 0.149175 -0.00737566)
(-0.181761 0.109572 0.0219684)
(-0.175887 0.121414 0.0130706)
(-0.266225 0.181637 -0.023413)
(-0.232903 0.144484 0.0187725)
(-0.21874 0.139739 -0.00617065)
(-0.215049 0.136825 -0.0155503)
(-0.177447 0.111976 0.0188999)
(-0.164051 0.104295 0.00798496)
(-0.181194 0.109202 0.0131287)
(-0.169417 0.105382 -0.0017641)
(-0.17068 0.0990424 0.00213378)
(-0.151398 0.0817508 0.0144399)
(-0.143398 0.0814738 0.0141805)
(-0.16824 0.105643 0.0128155)
(-0.153714 0.0904042 -0.00131492)
(-0.149912 0.0823989 0.00912018)
(-0.276922 0.166135 -0.0390132)
(-0.219737 0.140768 0.00597372)
(-0.195952 0.121242 -0.0120366)
(-0.172102 0.110816 -0.00471834)
(-0.215323 0.138583 -0.0242212)
(-0.177419 0.112927 -0.00801797)
(-0.152379 0.0933354 0.00553564)
(-0.149547 0.0811154 0.010536)
(-0.15837 0.0995866 -0.000172254)
(-0.155368 0.0927324 0.00799793)
(-0.348272 0.262534 0.0244377)
(-0.36136 0.273965 -0.0225499)
(-0.326708 0.215324 -0.016492)
(-0.414918 0.284448 -0.00596519)
(-0.397377 0.231776 -0.00521063)
(-0.317152 0.217959 -0.000385648)
(-0.322948 0.208796 -0.00780819)
(-0.350835 0.20826 -0.0304064)
(-0.28842 0.184012 -0.00617338)
(-0.286383 0.171417 -0.0208311)
(-0.26889 0.167282 -0.0341014)
(-0.308868 0.194746 -0.0313804)
(-0.270363 0.173684 -0.0320917)
(-0.476139 0.287605 0.000959029)
(-0.510082 0.269038 -0.00296108)
(-0.431371 0.251692 0.00284021)
(-0.428517 0.230444 0.0372499)
(-0.35135 0.236225 0.0166685)
(-0.336559 0.203137 0.0495856)
(-0.381747 0.212642 -0.00556868)
(-0.389041 0.211393 -0.00574078)
(-0.341777 0.19464 0.00998115)
(-0.333699 0.199713 -0.0167443)
(-0.320457 0.184661 -0.00953573)
(-0.311551 0.196154 -0.0267338)
(-0.289455 0.175561 -0.015795)
(-0.22492 0.14308 -0.0246878)
(-0.190032 0.128777 -0.0161161)
(-0.244093 0.156266 -0.0301949)
(-0.241944 0.167787 -0.0375096)
(-0.213612 0.136404 -0.0122581)
(-0.252274 0.168967 -0.0205938)
(-0.20469 0.135954 -0.00216205)
(-0.171578 0.114047 -0.00713998)
(-0.180204 0.128671 -0.00610616)
(-0.159287 0.101765 0.0122548)
(-0.194495 0.130744 -0.000595794)
(-0.209344 0.148592 -0.0355745)
(-0.178535 0.120686 -0.0228639)
(-0.298674 0.184456 -0.0330062)
(-0.251686 0.159575 -0.0126513)
(-0.309626 0.18634 0.00493444)
(-0.315795 0.177815 -0.0195834)
(-0.298392 0.1752 -0.0265367)
(-0.281323 0.16886 -0.0149779)
(-0.293033 0.181692 -0.042835)
(-0.252177 0.15671 -0.0401453)
(-0.236091 0.16797 -0.0155979)
(-0.241944 0.157095 -0.0195653)
(-0.219679 0.154658 -0.0423994)
(0.123224 0.0960843 -0.159392)
(0.10765 0.0502039 -0.158697)
(0.101216 0.0878792 -0.0550927)
(0.0134032 0.102427 -0.107546)
(0.00443628 0.0616098 -0.132851)
(0.027237 0.100869 -0.0801215)
(0.115331 0.075176 -0.0669365)
(0.120635 0.137415 -0.243483)
(0.100257 0.0622622 -0.232497)
(0.112899 0.160659 -0.157618)
(-0.0890979 0.235824 -0.29273)
(-0.0476403 0.0463866 -0.306697)
(-0.0275165 0.206851 -0.262707)
(0.0290924 0.115948 -0.344207)
(-0.131536 0.13884 -0.0252559)
(-0.129689 0.0808107 -0.0494985)
(-0.110376 0.116215 -0.022559)
(-0.108082 0.0998092 -0.118829)
(-0.0647592 0.136257 -0.074419)
(-0.161304 0.242093 -0.168)
(-0.196725 0.153799 -0.176569)
(-0.117777 0.190265 -0.158296)
(-0.150927 0.183204 -0.0309676)
(-0.200123 0.149632 -0.0746755)
(-0.0240259 0.150331 -0.178372)
(-0.0363547 0.0872321 -0.217651)
(-0.00879989 0.167514 -0.157878)
(-0.142179 0.0430016 0.0504989)
(-0.133959 0.0107489 0.0427467)
(-0.134859 0.0170844 0.0423769)
(-0.127151 0.0214714 0.0332996)
(-0.137398 0.0385707 0.0392556)
(-0.17415 0.0510183 0.0478507)
(-0.146827 0.015182 0.0375289)
(-0.158035 0.0234316 0.0351575)
(-0.196247 0.0644186 0.0351102)
(-0.211622 0.0706661 0.03275)
(-0.207672 0.0347153 0.0409086)
(-0.166994 0.0125012 0.0489946)
(-0.158001 0.029341 0.0283169)
(-0.205032 0.0128344 0.0389818)
(-0.178291 0.0383993 0.0161882)
(-0.139293 0.061448 0.0500045)
(-0.133129 0.0255928 0.0495043)
(-0.138583 0.0317119 0.0556926)
(-0.113832 0.0624133 0.0360907)
(-0.106346 0.0256408 0.0426897)
(-0.117274 0.0451073 0.0462924)
(-0.129603 0.04515 0.0458937)
(-0.125798 0.0860063 0.0357821)
(-0.15451 0.0612181 0.0240207)
(-0.128077 0.0635759 0.0423964)
(-0.13765 0.0365586 0.0477854)
(-0.114706 0.0805026 0.0381875)
(-0.131596 0.0575097 0.0374642)
(-0.124471 0.0659996 0.0578543)
(-0.169362 0.10489 0.00869453)
(-0.15502 0.0516894 0.0443647)
(-0.174326 0.057252 0.0569177)
(-0.0588983 0.0692566 -0.0276061)
(-0.0487352 0.022803 -0.0541089)
(-0.0292742 0.0660971 -0.0420106)
(-0.119558 0.0750989 0.00882764)
(-0.104625 0.0433522 -0.0299254)
(-0.103595 0.0620494 0.0078125)
(-0.0639323 0.044931 -0.0658168)
(-0.0533426 0.0871135 -0.0384235)
(-0.108398 0.0643886 0.000987738)
(0.0236416 0.0573003 -0.069493)
(0.0342294 0.0148981 -0.0790219)
(0.0347223 0.040002 -0.0294139)
(0.0925773 -0.0033139 -0.0584392)
(0.0914632 0.00930519 -0.0162408)
(0.0420421 0.0495813 -0.0468621)
(0.0761097 0.0243701 -0.0283032)
(-0.121316 0.0545014 0.000195739)
(-0.0985235 0.0292037 -0.0215233)
(-0.0867068 0.0760591 -0.0288982)
(-0.0221425 0.0884933 -0.0388041)
(-0.128537 0.0815574 -0.00554411)
(-0.0688407 0.104923 -0.0354544)
(-0.0104408 0.132787 -0.0347832)
(0.0324082 0.0753374 -0.042026)
(0.0670932 0.0531188 -0.0258117)
(0.029374 0.12521 -0.0314311)
(0.0556344 0.0974355 -0.0141697)