/*--------------------------------*- C++ -*----------------------------------*\
| =========                 |                                                 |
| \\      /  F ield         | OpenFOAM: The Open Source CFD Toolbox           |
|  \\    /   O peration     | Version:  5.0                                   |
|   \\  /    A nd           | Web:      www.OpenFOAM.org                      |
|    \\/     M anipulation  |                                                 |
\*---------------------------------------------------------------------------*/
FoamFile
{
    version     2.0;
    format      ascii;
    class       surfaceScalarField;
    location    "60";
    object      phiHyper;
}
// * * * * * * * * * * * * * * * * * * * * * * * * * * * * * * * * * * * * * //

dimensions      [0 3 -1 0 0 0 0];

internalField   nonuniform List<scalar> 
105314
(
-5.74449e-09
-7.07166e-09
-1.29563e-09
-6.96725e-10
4.17715e-10
8.73842e-11
-8.79446e-10
-2.18644e-10
8.40937e-10
1.05989e-09
-2.37891e-09
-1.64004e-10
1.63504e-09
-3.39843e-09
1.70874e-09
-1.32482e-10
1.69145e-09
-3.67353e-09
1.95055e-09
-6.67672e-11
1.30029e-09
-3.02018e-09
1.65417e-09
2.33402e-10
5.29266e-10
-1.63762e-09
8.08184e-10
5.00591e-10
2.87931e-10
-8.06204e-10
2.51086e-10
1.15568e-10
1.09295e-09
-1.78653e-10
5.45188e-11
-1.60774e-10
3.16227e-11
-3.22262e-10
-3.05298e-11
-3.04933e-10
-2.09933e-10
-4.2399e-09
-5.67239e-10
5.09152e-10
1.28633e-08
-6.12643e-09
-9.3831e-09
-2.1028e-09
2.86681e-10
1.31319e-09
-4.57751e-09
-3.91097e-09
7.39777e-09
-1.03151e-09
4.85253e-10
-5.27621e-10
-4.41276e-10
1.14075e-10
-5.5681e-11
-6.48636e-10
-8.47284e-10
5.13289e-10
8.72552e-10
-9.79836e-10
-7.75596e-10
-3.35113e-11
-9.15836e-11
5.34103e-11
-3.85472e-10
9.3435e-10
-8.37607e-10
-4.86868e-10
-4.77824e-10
1.44427e-10
-2.46104e-11
-2.7463e-11
-4.93254e-10
-1.00253e-10
3.04927e-12
1.12636e-10
-1.92117e-10
3.44668e-10
-4.46894e-10
-1.98911e-10
-1.61004e-10
-3.72524e-11
4.01976e-13
5.74085e-12
-5.91429e-11
1.03843e-10
-1.37307e-10
-6.83968e-11
-7.38539e-11
2.79438e-11
-1.1607e-11
-1.62266e-12
-2.1165e-11
3.23538e-11
-5.54779e-11
-2.95643e-11
-2.7313e-11
1.94905e-11
-9.04604e-12
-4.2949e-12
-2.43187e-12
1.94878e-11
-3.69446e-12
-4.0674e-11
1.40169e-11
8.96099e-13
5.33373e-12
-2.26779e-11
-8.68675e-12
2.38818e-11
-2.41827e-11
-1.26751e-11
-8.3387e-12
-3.34236e-12
-3.57993e-12
-7.11611e-12
-1.40026e-11
3.37765e-13
2.75481e-12
1.69929e-12
-8.37068e-12
3.01897e-12
-1.04706e-11
1.92197e-11
6.21886e-12
-1.9663e-11
7.33151e-11
-8.98794e-11
5.52708e-11
8.78655e-11
8.6542e-12
-3.71276e-12
1.85696e-10
-1.88494e-10
1.2302e-10
1.77951e-10
7.41325e-11
-3.8445e-11
3.05699e-11
1.09579e-10
2.34058e-11
1.43974e-11
1.04449e-10
-7.28669e-12
3.67521e-10
6.15884e-11
-2.15081e-10
5.82985e-11
3.77679e-10
-3.11403e-12
-6.53402e-11
3.53254e-10
-5.05371e-11
1.00811e-09
-7.54934e-10
4.77754e-10
1.15127e-09
3.19303e-10
-3.18035e-10
1.17137e-09
-6.65519e-11
1.29448e-11
1.74805e-10
-4.95723e-10
-8.86631e-10
1.19308e-09
-3.90916e-10
-2.74421e-09
-1.40736e-09
2.43112e-10
-6.57839e-09
-3.56933e-09
8.65274e-09
-1.49236e-09
-1.49319e-09
1.65967e-09
-5.72013e-10
-1.08527e-09
-4.61339e-10
4.24835e-11
1.09433e-11
-4.19308e-10
6.67529e-10
-4.44922e-10
-8.8857e-10
-4.60478e-10
-3.46124e-11
-7.02919e-12
8.28117e-11
-4.4825e-10
-3.06844e-12
-9.42912e-11
8.51315e-11
-2.28968e-10
-5.2524e-10
-2.42195e-10
5.48151e-10
-1.98363e-10
-1.89762e-11
-1.5263e-11
3.63592e-12
-8.12142e-11
1.93898e-10
-2.20657e-10
-9.03889e-11
-7.85973e-11
1.53425e-13
-3.24527e-12
4.77985e-13
-3.90603e-11
-2.20088e-11
-9.65852e-11
7.90578e-11
-3.24233e-11
-1.60704e-11
-1.83035e-12
1.12642e-11
1.75203e-12
-6.42746e-11
3.80297e-11
1.02522e-11
-1.76799e-11
3.1262e-11
-3.78735e-11
-9.69083e-12
-4.37912e-11
9.88135e-12
-1.30465e-11
-2.63616e-12
-4.35479e-11
7.32512e-12
-8.46355e-12
8.96888e-13
-4.57267e-11
6.53886e-12
-4.9348e-12
5.76223e-13
-5.22098e-11
5.39048e-12
-1.48543e-12
2.57922e-12
-5.68201e-11
6.72256e-14
4.15044e-12
3.93874e-13
-6.22223e-11
-5.45475e-12
1.0709e-11
1.49605e-13
-6.70808e-11
-1.0929e-11
2.37261e-11
-7.93619e-12
-4.42121e-11
-1.99549e-11
8.67695e-13
-3.77955e-12
-1.52256e-11
-1.45426e-11
2.18418e-11
-3.62849e-11
-1.68668e-11
-5.63138e-12
9.70444e-12
-2.43129e-12
-2.08265e-11
-1.05597e-11
1.51443e-11
-6.23708e-13
-2.11209e-11
-1.68929e-11
2.00165e-11
-2.82815e-12
-2.11141e-11
-2.1387e-11
2.49722e-11
-3.5907e-12
-1.92732e-11
-2.57933e-11
2.84887e-11
-4.53532e-12
-1.73599e-11
-2.89665e-11
3.07911e-11
-3.73607e-12
-1.4369e-11
-3.05129e-11
3.23201e-11
-4.79642e-12
-1.13332e-11
-3.01601e-11
3.21884e-11
-5.06193e-12
-8.77412e-12
-2.82633e-11
3.06927e-11
-4.98619e-12
-5.49417e-12
-2.64851e-11
2.78637e-11
-4.65681e-12
-3.42772e-12
-2.27723e-11
2.39163e-11
-3.2086e-12
-1.95065e-12
-1.83646e-11
1.82642e-11
-1.37505e-12
-1.54437e-12
-1.20854e-11
1.20309e-11
-3.50638e-13
-4.88542e-13
-5.85365e-12
5.54639e-12
-7.47858e-13
-1.02728e-11
9.01874e-12
-6.27719e-13
1.39424e-12
-8.22165e-12
4.83057e-13
-5.26018e-12
2.72696e-12
6.62183e-12
-2.2571e-11
-9.44291e-12
1.71712e-11
6.67377e-13
5.8446e-13
2.89551e-12
-1.17267e-11
-2.58568e-12
4.11102e-12
-1.70264e-11
-2.55206e-12
6.52348e-12
-2.09211e-11
-4.26195e-12
8.67249e-12
-2.41936e-11
-4.43897e-12
1.1818e-11
-2.72153e-11
-4.19153e-12
1.42314e-11
-2.82042e-11
-4.36789e-12
1.58375e-11
-2.76833e-11
-4.43402e-12
1.68306e-11
-2.5261e-11
-4.69721e-12
1.78976e-11
-2.15317e-11
-5.32736e-12
1.79394e-11
-1.68754e-11
-4.5524e-12
1.66438e-11
-1.24674e-11
-3.12907e-12
1.05283e-11
-4.58403e-12
1.40655e-13
8.04124e-12
-2.20064e-12
-9.4327e-13
3.96577e-11
-1.82498e-11
-2.79084e-11
5.31392e-11
-1.81508e-11
-1.52829e-11
5.08316e-11
-6.00572e-12
-2.61355e-12
4.25516e-11
4.67061e-13
2.35939e-12
3.72808e-11
-1.70515e-13
5.50963e-12
2.64263e-11
1.42407e-11
2.00494e-12
2.55458e-11
6.97539e-12
4.44923e-13
2.54004e-11
6.90333e-12
5.68273e-13
2.23315e-12
-2.34921e-12
-5.22052e-11
-1.25755e-11
-3.77228e-12
-5.23089e-11
-7.64503e-12
-7.12546e-13
-5.44076e-11
-2.49197e-12
-3.42568e-13
-5.99907e-11
1.99967e-12
2.0999e-12
-6.37893e-11
7.79483e-12
1.55456e-13
-6.70413e-11
1.42912e-11
-3.28243e-13
-4.91304e-11
2.3017e-11
-1.72001e-11
-9.977e-12
1.12185e-11
-3.03302e-11
-2.00411e-11
-1.6723e-11
4.45228e-12
7.19695e-13
1.57431e-12
-2.01476e-11
9.94016e-12
3.18971e-12
-2.17202e-11
1.54667e-11
1.25143e-12
-2.20516e-11
2.04176e-11
-6.84725e-14
-2.05462e-11
2.41573e-11
-6.89497e-13
-1.84201e-11
2.76645e-11
-1.30021e-12
-1.6566e-11
2.96899e-11
-7.51273e-13
-1.44297e-11
3.13381e-11
-1.15216e-12
-1.16968e-11
3.1165e-11
-1.70639e-12
-7.58388e-12
2.88114e-11
-2.22976e-12
-4.84323e-12
2.63106e-11
-1.18495e-12
-2.36736e-12
2.17821e-11
-3.39659e-13
-6.18976e-13
1.55858e-11
9.317e-13
2.39261e-12
7.84137e-12
1.17933e-12
-1.0803e-11
-6.04595e-14
1.24111e-11
8.46219e-13
1.93927e-11
-1.56296e-11
-6.25358e-12
2.55382e-11
5.05746e-14
-6.19686e-13
-2.20394e-11
1.65179e-11
-1.10225e-13
2.37403e-12
-1.31662e-11
8.07724e-12
2.09669e-12
-1.119e-11
1.16484e-11
4.60147e-13
1.45698e-12
-8.48999e-12
-5.76861e-12
1.79197e-11
-1.48499e-11
-1.17426e-11
4.69959e-13
4.39654e-13
2.34419e-12
-1.29446e-11
7.81976e-13
-1.8353e-12
2.25668e-12
-1.27436e-11
9.83533e-13
-2.8473e-12
1.66398e-12
-1.10533e-11
8.82936e-13
-3.30017e-12
7.28169e-13
-7.92453e-12
3.91528e-13
-3.6114e-12
9.2111e-14
5.34056e-12
-7.61453e-12
-1.89613e-11
1.33114e-11
6.3378e-12
5.73373e-13
-1.17853e-12
7.52104e-12
1.58934e-12
-1.8888e-12
7.70536e-12
2.04749e-12
-1.24741e-12
7.05752e-12
1.69419e-12
-2.63515e-13
1.88944e-12
-1.29818e-13
2.04278e-12
-1.44083e-11
1.09142e-12
-2.20859e-11
1.46438e-12
-3.1177e-12
-2.40195e-11
-2.06576e-13
-1.59486e-11
1.18878e-13
3.05928e-12
-1.50306e-11
-1.92803e-12
1.2789e-12
-2.16041e-11
-6.32879e-13
7.35397e-12
-1.8819e-12
-2.67617e-11
-1.16688e-11
4.6589e-12
4.92215e-12
-6.1941e-12
1.46751e-12
1.9622e-12
-8.9035e-12
4.92175e-12
-4.38941e-13
1.2703e-11
-2.33792e-11
6.76028e-12
1.09835e-12
-1.46879e-12
2.94239e-12
-3.24877e-12
4.26109e-12
-1.34154e-11
-4.9285e-12
6.59549e-12
-1.69056e-11
-6.34835e-12
8.5238e-12
-1.95287e-11
-6.59163e-12
1.03959e-11
-2.15153e-11
-7.57135e-12
1.22526e-11
-2.24635e-11
-7.59585e-12
1.34488e-11
-2.09364e-11
-7.9422e-12
1.36705e-11
-1.77627e-11
-7.71908e-12
1.40307e-11
-1.43207e-11
-7.57051e-12
1.23971e-11
-1.13836e-11
-3.85778e-12
7.13689e-12
-3.69229e-12
-3.51436e-12
2.36684e-11
2.97704e-11
-2.63362e-11
-1.9965e-11
2.21003e-11
-1.61562e-11
1.3141e-11
-5.81667e-12
7.46734e-12
-4.79775e-11
-8.85388e-12
4.86684e-11
2.34804e-12
-2.48687e-11
-9.49315e-12
-4.02133e-11
-9.05906e-12
3.28618e-11
-8.45698e-12
-2.14362e-11
-2.17255e-11
1.36151e-11
-1.06656e-11
-4.71591e-12
-1.54965e-11
1.94744e-11
-2.06981e-11
-7.95129e-12
-4.82656e-12
-3.32158e-12
-8.37089e-12
-9.52387e-12
-4.37756e-12
-9.04964e-12
-1.20328e-11
-5.05068e-12
-8.32433e-12
-1.35676e-11
-8.09331e-12
-8.12334e-12
-1.43141e-11
-8.34939e-12
-6.89546e-12
-1.45826e-11
-8.15941e-12
-5.32877e-12
-1.36347e-11
-7.45967e-12
-3.56611e-12
-1.07828e-11
-7.88426e-12
-1.20512e-11
-3.8308e-12
-5.00983e-12
1.91981e-11
-2.66776e-11
-4.20107e-12
5.14921e-12
-1.2953e-11
6.99571e-12
5.32131e-12
-2.36815e-11
3.15203e-12
1.10077e-11
3.00475e-12
-3.31653e-12
3.64257e-12
-9.20667e-12
-5.06536e-12
4.47844e-12
-1.01263e-11
-5.29156e-12
4.5227e-12
-9.64217e-12
-4.71572e-12
8.60997e-13
-4.16623e-12
-5.73941e-12
1.81333e-11
9.31226e-12
-1.34048e-11
-1.31796e-11
1.54612e-11
-2.90587e-11
1.96982e-11
1.5277e-11
-2.50009e-11
1.56611e-11
-1.49677e-11
9.92161e-12
-2.88162e-11
-1.19222e-11
2.81192e-11
-2.34811e-12
-2.68605e-11
-1.92835e-11
-7.67277e-12
-3.01382e-11
-1.64682e-11
-1.84081e-11
-1.36238e-11
1.55061e-11
-1.36117e-11
-1.59399e-11
-1.59189e-11
-7.30923e-12
2.07606e-11
-1.39486e-11
-1.77386e-11
-9.3205e-12
2.50689e-11
-1.04844e-11
-2.00233e-11
-1.02957e-11
2.68558e-11
-6.96426e-12
-2.0128e-11
-8.54371e-12
2.51526e-11
-4.30404e-12
-1.96469e-11
-6.69389e-12
-3.64427e-12
-1.82785e-11
2.57135e-11
-8.09376e-12
-2.62352e-12
-1.57011e-11
2.32698e-11
-8.58845e-12
-2.40143e-12
-1.25179e-11
1.89611e-11
-6.66433e-12
-1.34551e-12
-8.92326e-12
1.43794e-11
-6.51114e-12
-2.24396e-12
-5.94113e-12
9.2495e-12
-2.40926e-12
-7.34419e-12
-4.8779e-12
2.36462e-12
-7.13302e-12
-1.94664e-11
1.33149e-11
-6.21923e-12
2.46198e-12
-5.58428e-12
2.20951e-12
4.62223e-12
-2.0316e-11
1.0433e-11
-9.57773e-13
8.25491e-13
-2.66405e-12
1.1179e-12
-4.11191e-12
-8.69786e-12
1.68558e-12
-1.09091e-11
-5.35905e-12
4.20003e-12
-1.42781e-11
-6.51436e-12
4.70771e-12
-1.0099e-11
-1.00549e-11
5.45055e-12
-1.13154e-11
-9.55462e-12
6.85799e-12
-8.29855e-12
-1.31316e-11
7.94637e-12
-1.18686e-11
-6.95803e-12
8.81653e-12
-1.02758e-11
-6.51284e-12
8.2498e-12
-8.16017e-12
-4.8967e-12
1.10974e-11
-4.24311e-12
5.90396e-12
-4.50828e-12
1.64768e-11
-9.15615e-12
1.3299e-11
-4.57048e-12
-4.17367e-12
9.68203e-12
-2.97452e-12
1.11606e-11
-4.56878e-12
2.4292e-11
-8.21561e-12
1.7659e-11
-3.63156e-13
-2.06241e-12
6.03391e-12
-1.0448e-12
1.62052e-11
-3.53499e-12
3.09835e-11
-9.4092e-13
3.57738e-12
5.6654e-12
2.10164e-11
7.25191e-13
3.92285e-11
-5.13178e-12
3.47513e-11
-3.32544e-12
1.7984e-12
2.27232e-11
9.63709e-12
2.85888e-12
2.30949e-11
2.55189e-12
-3.09366e-12
3.78027e-11
-3.24392e-11
8.74596e-11
-6.97277e-11
5.2627e-11
1.89841e-11
-1.95667e-11
5.42661e-11
2.10673e-11
-1.57301e-11
5.31515e-11
2.65392e-11
-1.85194e-11
4.76982e-11
2.41829e-11
-1.64929e-11
4.43532e-11
1.77495e-11
-7.55325e-11
6.11308e-11
-1.05581e-12
-1.47828e-11
1.14397e-12
-5.39207e-11
-5.15319e-12
-5.4566e-11
-2.63917e-12
-5.59529e-11
1.26438e-12
-2.36739e-12
-6.06641e-11
6.13933e-12
5.7277e-13
-6.45166e-11
1.21869e-11
-5.37916e-13
-6.79343e-11
1.80355e-11
-3.24995e-13
-5.26901e-11
2.28935e-11
-1.51185e-11
-1.48904e-11
8.67164e-12
-3.52521e-11
-1.78558e-11
5.97324e-12
1.44492e-12
-2.13365e-11
1.12213e-11
2.20053e-12
-2.28435e-11
1.61217e-11
8.53199e-13
-2.12976e-11
2.09786e-11
-2.10539e-12
-2.00645e-11
2.51722e-11
-2.24688e-12
-1.74767e-11
2.82303e-11
-3.15214e-12
-1.56795e-11
3.00428e-11
-2.14847e-12
-1.26875e-11
3.02417e-11
-1.89296e-12
-9.20769e-12
2.94821e-11
-1.79473e-12
-6.16204e-12
2.61692e-11
-4.00569e-13
-3.82684e-12
2.2526e-11
1.45148e-12
-1.63438e-12
1.71905e-11
2.4012e-12
-8.12452e-13
1.1349e-11
3.41677e-12
2.52519e-13
5.98766e-12
7.89621e-13
2.32143e-12
8.22691e-12
2.11655e-12
3.66836e-14
2.09377e-11
6.88763e-12
-1.5795e-13
1.23096e-11
4.4047e-12
6.10883e-13
5.9128e-12
1.39643e-12
3.22634e-12
7.19866e-12
1.8352e-12
7.50268e-13
-2.05988e-11
1.65441e-11
6.53311e-12
2.59904e-12
-1.18163e-11
7.57133e-12
2.3972e-12
-8.37062e-12
7.26484e-12
3.81278e-12
-1.0703e-13
-6.19846e-12
-5.25201e-12
1.49853e-11
-1.19048e-11
-1.02635e-11
-2.02955e-13
2.46903e-12
1.79974e-12
-1.26473e-11
-8.74454e-14
-6.37084e-13
3.10925e-12
-1.41455e-11
4.22328e-13
-2.18149e-12
3.25859e-12
-1.4571e-11
7.89589e-13
-3.04372e-12
2.68106e-12
-1.37289e-11
1.03357e-12
-3.87566e-12
2.00141e-12
-1.08283e-11
5.27622e-13
-3.34312e-12
-8.40712e-14
-6.79881e-12
3.48111e-13
-4.04703e-12
-3.29407e-13
5.78487e-12
-1.72493e-11
-8.06185e-12
1.27284e-11
7.67423e-12
-1.56938e-14
-1.52472e-12
9.32641e-12
1.23177e-12
-2.35528e-12
9.88487e-12
2.22275e-12
-1.74656e-12
9.9435e-12
1.77654e-12
-1.04446e-12
9.05845e-12
1.18278e-12
1.25716e-13
7.06069e-12
6.94949e-13
1.21626e-12
6.68412e-13
9.37874e-13
3.51379e-12
-1.72314e-11
2.5712e-12
1.29758e-12
2.8763e-11
7.17347e-12
-9.07919e-11
-1.97244e-11
7.58816e-11
4.69327e-11
7.66689e-12
-1.3242e-10
1.10505e-10
-3.91661e-12
7.146e-11
1.34419e-10
1.34364e-12
-1.54949e-10
-5.33636e-12
9.75975e-11
1.69994e-10
1.98933e-12
-1.92921e-10
-5.19723e-12
1.25249e-10
2.1016e-10
-1.10141e-11
-2.26017e-10
-7.75593e-13
1.56837e-10
2.43268e-10
-1.75261e-11
-2.61642e-10
4.31409e-12
1.97395e-10
2.7809e-10
-3.46475e-11
-2.95782e-10
1.17868e-11
2.09316e-10
3.07275e-10
-2.95872e-10
-3.0852e-11
7.5313e-12
3.10491e-10
2.18639e-11
3.0352e-10
-3.82418e-10
-4.41354e-11
6.04186e-10
-3.6363e-10
4.57193e-10
1.65267e-09
-1.68546e-09
2.98973e-10
3.95573e-10
1.34333e-11
9.75069e-11
2.87513e-11
-7.00791e-11
-1.89853e-10
-4.10584e-10
-5.18157e-10
5.81129e-10
-3.52266e-10
3.94967e-10
5.85915e-12
-2.55007e-11
4.65536e-10
4.04516e-10
-2.04652e-11
-4.50083e-10
1.81633e-10
7.34368e-10
4.05343e-10
-1.55307e-11
-6.11354e-10
-4.72897e-11
5.77186e-10
4.0262e-10
-4.03667e-10
-1.41826e-11
1.72418e-10
8.90229e-10
3.96056e-10
-1.29086e-11
-5.93792e-10
-1.02396e-10
7.61466e-10
3.77908e-10
2.11464e-10
-7.61213e-12
-4.52992e-10
1.0425e-09
3.55286e-10
-1.98014e-10
-4.45981e-10
7.68119e-12
8.5626e-10
3.25094e-10
2.46783e-10
-3.93162e-10
7.52607e-12
1.14107e-09
2.93319e-10
-3.436e-10
-2.52613e-10
1.80862e-11
9.10554e-10
2.45031e-10
2.3613e-10
1.69449e-11
-2.67582e-10
1.20435e-09
1.98691e-10
-3.17352e-10
-2.0849e-10
3.33675e-11
9.53391e-10
1.3569e-10
2.00776e-10
-1.21301e-10
3.57959e-11
7.4214e-11
-4.23881e-11
-3.91517e-10
5.64159e-11
-5.15479e-11
4.52012e-12
-2.77707e-12
-5.56139e-11
9.22995e-12
9.76999e-13
-5.86968e-11
1.40598e-11
1.21136e-12
-6.24766e-11
1.95526e-11
2.26443e-12
-4.98433e-11
2.14678e-11
-1.12059e-11
-9.63152e-12
-2.77991e-11
-3.74043e-12
-1.48899e-11
7.90112e-13
1.04419e-11
-1.97238e-11
9.19308e-12
6.86272e-12
-2.14736e-11
1.44336e-11
3.43926e-12
-2.00025e-11
1.85956e-11
9.12955e-13
-1.84419e-11
2.19516e-11
1.66148e-12
-1.58148e-11
2.49014e-11
7.0305e-13
-1.34055e-11
2.57015e-11
1.93384e-12
-1.06793e-11
2.56009e-11
1.91651e-12
-7.28695e-12
2.36032e-11
2.48903e-12
-4.69998e-12
2.04653e-11
3.11915e-12
-2.38308e-12
1.5783e-11
4.42813e-12
-7.89473e-13
1.09671e-11
4.63219e-12
2.09553e-12
6.22e-12
2.2452e-12
-9.56798e-12
3.03632e-12
7.66637e-12
9.62221e-13
1.95379e-11
-1.48902e-11
-2.92418e-12
2.12882e-11
4.21329e-12
2.09002e-13
1.29683e-11
4.83827e-12
2.97243e-12
6.99495e-12
2.55217e-12
-8.39188e-12
4.83709e-12
7.12756e-12
-5.99415e-13
1.78612e-11
-1.31405e-11
-3.92702e-13
1.77229e-11
5.3703e-12
5.25094e-12
7.58604e-12
3.31621e-12
-1.0044e-11
6.12102e-12
9.79907e-12
-6.23864e-13
1.95925e-11
-1.47991e-11
6.02042e-13
1.6725e-11
8.38868e-12
3.70167e-12
-1.56013e-11
8.21875e-12
4.28413e-12
-8.94355e-12
6.93002e-12
4.82151e-12
8.94635e-13
-6.83611e-12
-6.43585e-12
1.64659e-11
-1.21366e-11
-1.14136e-11
-6.29143e-13
2.36049e-12
2.84695e-12
-1.10608e-11
-2.80753e-12
-5.66202e-13
3.02185e-12
-7.00657e-12
-5.52136e-12
1.39196e-11
-1.24519e-11
-9.12995e-12
3.23422e-13
-1.31232e-12
3.11286e-12
-1.10118e-11
7.8679e-13
-3.0911e-12
4.18683e-12
-1.21588e-11
1.22721e-12
-3.85256e-12
3.77324e-12
-1.18824e-11
1.23393e-12
-4.19496e-12
2.68565e-12
-9.8655e-12
1.3013e-12
-4.38558e-12
1.06828e-12
-6.25772e-12
5.41452e-13
-4.73014e-12
5.81605e-13
6.09873e-12
-8.72827e-12
-1.5958e-11
1.23306e-11
7.3398e-12
1.07598e-12
-1.77507e-12
8.94863e-12
2.63922e-12
-2.94597e-12
9.31172e-12
2.60237e-12
-1.73063e-12
8.73789e-12
2.56162e-12
-7.59827e-13
7.14193e-12
1.92537e-12
4.58083e-13
1.41152e-12
5.32952e-13
1.54098e-11
4.3882e-12
-1.90223e-11
9.97901e-12
5.09343e-12
1.41671e-12
1.49806e-12
4.61521e-12
2.18296e-11
-6.9203e-11
2.14682e-11
-1.66359e-11
4.71605e-11
4.41577e-11
2.32535e-11
-1.08775e-10
-1.74862e-11
8.06831e-11
6.54874e-11
1.22502e-10
1.67195e-11
-1.4031e-10
-2.02353e-11
9.80346e-11
1.50078e-10
1.70298e-11
-1.80509e-10
-1.91423e-11
1.37239e-10
-1.83992e-11
2.08432e-10
-2.27088e-10
-2.14473e-12
1.62505e-10
-4.55962e-12
2.28046e-10
-1.77199e-11
-2.31029e-10
2.47327e-10
-1.24717e-10
-9.77949e-12
3.27781e-10
-2.78104e-10
2.47847e-10
3.39211e-10
-9.08059e-12
-1.9916e-11
-3.1073e-10
3.75623e-10
3.69507e-12
4.21053e-10
-2.02211e-10
-3.5031e-10
3.21615e-10
9.18501e-12
4.58084e-10
-3.74545e-11
-3.75803e-10
5.23528e-10
2.52201e-11
-2.3194e-10
-3.58818e-10
4.55977e-10
2.66751e-11
3.57758e-10
-2.23224e-11
-2.94559e-10
3.83625e-10
2.01971e-10
-2.46878e-11
3.65687e-10
2.29934e-11
3.7758e-10
-3.49439e-10
-3.31936e-11
4.99403e-10
-1.81339e-10
4.72091e-10
-2.94992e-11
4.86404e-10
4.26184e-10
-2.8096e-11
1.94288e-11
7.02067e-10
4.86902e-10
-1.96067e-11
-2.77612e-10
6.0404e-10
4.92749e-10
-1.96301e-11
2.75302e-11
8.44437e-10
5.02763e-10
-1.25714e-11
-3.34529e-10
7.16419e-10
4.82797e-10
3.57003e-11
-1.25702e-11
9.7655e-10
4.75762e-10
-3.82397e-10
1.7931e-12
8.01476e-10
5.11839e-11
4.4544e-10
3.54741e-12
1.07692e-09
-4.23653e-10
4.18572e-10
2.2961e-11
8.61921e-10
3.67513e-10
2.73377e-11
6.51824e-11
1.15147e-09
3.12414e-10
5.24345e-11
-4.55699e-10
9.14931e-10
5.86314e-11
7.79499e-11
8.34583e-11
-4.74377e-10
-3.45964e-11
-1.49697e-11
-9.11585e-13
1.4643e-11
-3.61586e-11
-1.88927e-11
5.0813e-12
1.53745e-11
-3.72836e-11
-2.37937e-11
8.05176e-12
1.68676e-11
-3.81496e-11
-2.41077e-11
5.7331e-12
1.92414e-11
-3.48656e-11
-2.93987e-11
6.02248e-12
2.00934e-11
-1.13307e-11
4.90215e-12
-4.47622e-12
-2.39604e-11
-9.19246e-12
-9.2205e-12
5.44722e-12
1.63545e-12
-8.95586e-12
-1.41875e-11
1.00971e-11
3.85439e-12
-8.35124e-12
-1.67989e-11
4.20265e-12
1.19924e-11
-7.2786e-12
-1.84832e-11
1.29382e-11
4.47337e-12
-5.75619e-12
-1.89078e-11
1.26493e-11
4.73719e-12
-4.26449e-12
-1.78602e-11
1.18418e-11
4.52787e-12
-2.20035e-12
-1.64535e-11
1.03468e-11
4.04395e-12
2.3762e-12
-1.2749e-11
5.54855e-12
2.62488e-12
-1.03406e-11
2.3623e-12
7.89198e-12
2.46367e-12
-4.58091e-12
-1.11308e-11
-1.9692e-11
2.50647e-11
-7.14288e-12
-5.27322e-12
-1.27147e-11
2.05519e-11
-8.9001e-12
3.628e-12
-2.36789e-12
4.98797e-13
1.9432e-11
-1.44441e-11
-2.91117e-12
2.09326e-11
5.04223e-12
2.61988e-13
1.2872e-11
5.24527e-12
3.24484e-12
6.89077e-12
3.09535e-12
-8.9397e-12
5.76421e-12
6.62467e-12
-2.03588e-13
1.9549e-11
-1.43652e-11
-9.73799e-14
1.72599e-11
8.1524e-12
3.06643e-13
1.19513e-11
5.36907e-12
1.35302e-12
4.36666e-12
2.17356e-12
6.03718e-12
4.02727e-12
1.0885e-12
5.61425e-12
9.89265e-12
7.25659e-12
-8.74277e-12
8.31345e-12
6.40206e-12
-3.57305e-13
1.99164e-11
-1.35094e-11
7.41675e-13
1.59789e-11
1.15107e-11
2.98387e-12
-1.52019e-11
7.29908e-12
5.66145e-12
-8.28931e-12
5.70267e-12
2.72649e-12
2.84459e-12
-6.29155e-12
-5.82825e-12
-9.90895e-12
1.37401e-11
-1.00433e-11
-2.40818e-13
3.82268e-12
1.70507e-13
-1.17604e-11
-1.95946e-12
6.58027e-12
-2.90273e-12
-8.15545e-12
-5.29844e-12
1.30927e-11
-1.13985e-11
-8.93709e-12
1.1276e-12
-4.68104e-12
4.33566e-12
-1.21641e-11
2.0742e-12
-6.58523e-12
7.73878e-12
-1.46984e-11
2.23463e-12
-8.42032e-12
8.72071e-12
-1.56906e-11
2.68547e-12
-1.01692e-11
8.4769e-12
-1.57062e-11
2.723e-12
-9.65569e-12
6.94946e-12
-1.39332e-11
2.82822e-12
-9.23488e-12
4.63489e-12
-1.11506e-11
2.66455e-12
-8.21813e-12
2.77197e-12
-6.62639e-12
1.66896e-12
-6.29707e-12
1.04813e-13
-3.27534e-12
8.04448e-13
-3.8164e-12
-3.38561e-13
3.92647e-12
-4.04695e-12
-9.20034e-12
6.0459e-12
5.55716e-12
1.47584e-12
-2.30166e-12
9.95307e-12
6.81094e-13
-3.40722e-12
1.17609e-11
-3.87253e-12
1.36142e-11
-3.40961e-12
1.37732e-11
-1.62986e-12
1.26235e-11
-1.63967e-14
1.04005e-11
1.36735e-12
8.69023e-12
2.47285e-12
5.17968e-12
-6.59697e-13
1.67341e-11
1.8005e-12
9.8257e-12
7.31075e-12
2.02224e-12
1.73504e-12
8.1094e-12
3.08103e-11
4.08097e-11
2.27498e-11
-6.36982e-11
-2.25586e-11
5.7296e-11
-1.03325e-10
2.9278e-11
7.10637e-11
-2.34989e-11
7.61705e-11
1.10009e-10
3.78993e-11
-1.30737e-10
-3.60404e-11
1.18314e-10
-3.10856e-11
2.72633e-11
1.358e-10
-1.74116e-10
1.64252e-10
2.85146e-11
1.73519e-10
-3.54108e-11
-2.12558e-10
2.30659e-10
-3.59955e-11
2.15555e-10
1.31927e-11
-2.59156e-10
2.48966e-10
-2.35919e-10
-4.76985e-11
2.4954e-10
1.57752e-11
3.79811e-10
-3.59855e-10
-7.34361e-13
-3.90927e-11
2.6884e-10
4.82026e-10
-6.04986e-10
-3.79826e-10
2.90899e-10
2.05789e-09
3.57785e-10
2.33043e-10
-3.90127e-11
5.24433e-11
-4.36655e-11
-1.54763e-10
-2.32344e-10
-1.27171e-10
-1.51249e-09
6.07983e-10
-3.61112e-10
2.99358e-10
-6.66757e-13
-6.3536e-11
4.94977e-10
3.2865e-10
1.99442e-10
-3.5518e-10
-5.99035e-11
8.01277e-10
3.59289e-10
-4.77519e-11
-4.28741e-11
-5.74966e-10
6.2556e-10
3.85264e-10
1.97673e-10
-3.81845e-10
-2.53706e-11
9.66819e-10
3.72829e-10
-1.0286e-10
8.47075e-12
-6.19698e-10
6.8329e-10
-7.73328e-10
3.98918e-10
3.38723e-09
-2.42464e-10
5.50461e-10
3.32582e-10
-5.40174e-11
1.21222e-10
-4.9354e-10
-6.81049e-10
-2.25492e-10
1.11126e-11
-2.04809e-09
1.14467e-09
-7.26324e-10
4.16909e-10
-1.502e-10
-1.76835e-12
8.82358e-10
4.40228e-10
1.90614e-10
-3.96325e-10
2.78051e-11
1.3482e-09
4.09612e-10
-2.31993e-10
7.09021e-11
-7.14365e-10
4.4791e-09
-1.16461e-09
2.18731e-09
-6.54507e-10
4.23597e-11
3.82974e-10
-2.24823e-09
1.36497e-10
-1.92216e-10
-7.04377e-10
-9.16076e-10
-1.09892e-09
7.9932e-11
5.04922e-10
-2.34588e-09
2.36838e-10
-1.96832e-10
-1.27628e-11
-1.26974e-11
-1.37901e-11
-1.26708e-11
-7.15721e-12
-5.77245e-12
-2.54951e-11
-3.48956e-11
3.77123e-11
-2.26082e-11
2.69427e-11
-6.71248e-12
-2.31166e-11
-2.04466e-11
3.21188e-11
-1.10901e-11
-2.319e-11
-1.80164e-11
3.12509e-11
-1.26882e-11
-2.09924e-11
-1.53427e-11
3.03741e-11
-1.93799e-11
-1.36673e-11
-1.30669e-11
2.81061e-11
-1.36212e-11
-1.67601e-11
-1.0435e-11
2.49544e-11
-1.29994e-11
-1.45861e-11
-7.70836e-12
2.28604e-11
-1.17225e-11
-1.38637e-11
-5.33971e-12
1.9218e-11
-9.93531e-12
-1.16501e-11
-7.26209e-12
1.52991e-11
-5.43054e-12
-7.9455e-12
-1.23528e-11
2.0251e-12
-1.90427e-12
4.97053e-12
-4.77964e-12
2.48169e-11
-1.40695e-11
-1.83191e-11
-2.34067e-12
2.03374e-11
-9.63492e-12
-1.31401e-11
-4.74784e-12
1.47734e-11
-4.73001e-12
-7.63508e-12
-7.45971e-12
-2.54296e-12
4.28195e-12
9.73936e-13
-5.91436e-12
-6.28667e-12
-1.12138e-11
1.59562e-11
-8.23532e-12
5.39629e-12
-3.22116e-12
1.46748e-13
1.85349e-11
-1.32539e-11
-6.99152e-14
1.48838e-11
9.1188e-12
5.00346e-12
7.5819e-12
4.6055e-12
-8.23571e-12
5.8977e-12
8.13917e-12
-7.96791e-13
-1.69495e-12
2.22996e-11
-1.68877e-11
1.48244e-11
-8.12464e-12
4.33395e-12
7.95114e-12
-2.07081e-12
4.61122e-12
-9.90661e-12
8.77706e-12
5.27918e-12
1.85431e-13
2.05858e-11
-1.41965e-11
6.12109e-13
1.68309e-11
1.19211e-11
4.57005e-12
6.00873e-12
6.01285e-12
-6.658e-12
6.58065e-12
3.9057e-12
7.42234e-13
1.55445e-11
-9.20005e-12
3.11086e-12
9.7578e-12
9.25711e-12
-1.30261e-11
6.87295e-12
8.25837e-12
1.00641e-12
-1.09536e-11
-7.19888e-12
-9.81318e-12
1.49406e-11
-1.40298e-11
-1.89163e-11
1.91927e-11
2.80049e-12
-9.88829e-12
3.71513e-13
1.13683e-12
-5.64919e-12
-8.15171e-12
-2.4642e-11
1.91447e-11
3.76127e-12
-1.69048e-11
-2.96867e-11
8.04612e-12
3.03946e-11
-1.24071e-11
-3.62046e-12
1.90769e-12
-2.78453e-12
-5.98959e-12
5.68594e-12
1.73858e-11
-2.94887e-11
-1.00763e-11
8.96925e-12
-2.75689e-11
2.26871e-11
-1.2003e-11
8.34216e-12
-2.73501e-11
2.09355e-11
-5.05902e-12
-5.46796e-13
-4.16863e-12
-2.22803e-12
-3.35503e-12
2.3013e-12
-9.44152e-12
5.4366e-12
-4.11987e-12
2.96283e-12
-7.82387e-12
5.62643e-12
-2.4074e-12
1.6379e-12
-6.30956e-12
2.95967e-12
5.42643e-12
-1.18056e-11
-4.33177e-12
8.30406e-12
4.89841e-12
4.53159e-12
-2.36516e-12
3.99899e-12
5.79149e-12
-1.9287e-12
6.83249e-12
-1.07862e-12
1.52622e-11
-1.64466e-11
-2.1509e-12
1.15483e-11
3.6368e-12
8.44602e-12
5.48707e-12
5.83092e-12
5.96367e-11
-1.40009e-11
-2.05097e-11
1.12959e-10
-4.89375e-11
-4.96497e-11
3.78987e-11
7.36834e-12
1.59974e-10
-5.17833e-11
-7.89131e-11
5.6167e-12
7.80685e-11
2.26872e-10
-6.42561e-11
-1.18387e-10
1.08393e-10
7.3545e-12
3.55272e-10
-1.09132e-10
-1.84844e-10
1.52426e-11
1.50338e-10
3.28328e-10
4.11206e-11
1.63746e-10
1.30126e-11
-1.90932e-10
5.32439e-10
-1.73581e-10
2.04141e-10
-2.79415e-10
4.47476e-11
4.10672e-10
8.33201e-11
2.29549e-10
3.62478e-11
-2.27345e-10
6.40968e-10
-1.52358e-10
5.44707e-11
2.35146e-10
-3.67551e-10
4.21541e-10
2.43072e-10
-3.35669e-10
2.07111e-09
2.25217e-11
-9.46485e-11
-1.34329e-09
-3.70879e-10
-2.50812e-10
-4.47013e-10
2.60351e-10
-6.14563e-11
-3.83071e-10
3.69102e-10
-1.3328e-10
-2.70996e-11
-3.28194e-10
4.38144e-10
3.18129e-11
-2.83728e-10
2.47731e-10
-6.48532e-11
2.60778e-10
1.73462e-10
-6.63078e-11
3.16605e-10
7.37259e-11
-2.66538e-10
2.21684e-10
-8.46967e-11
4.63471e-10
-9.3656e-11
3.20674e-10
-7.45249e-11
4.86171e-10
8.06151e-11
3.0186e-10
-7.65262e-11
6.77704e-10
-1.92528e-10
4.17169e-10
-5.68844e-11
6.32742e-10
7.85976e-11
3.96241e-10
-4.46124e-11
5.18183e-10
-2.80402e-10
-5.53447e-12
9.42695e-10
-1.35165e-10
3.49686e-10
-2.13448e-11
-6.17688e-10
3.9114e-10
2.42412e-10
-1.82608e-11
7.9324e-10
8.38253e-11
4.21562e-10
-6.54493e-12
-9.0094e-10
1.13046e-09
-4.08691e-10
4.5899e-10
2.93949e-11
9.59035e-10
6.37632e-11
6.08027e-11
4.87086e-10
5.38247e-10
-4.60069e-10
1.25858e-10
1.38722e-09
-3.96987e-10
3.49636e-10
1.80408e-10
-9.8203e-10
-8.5696e-10
1.11044e-10
-6.73156e-10
-1.24801e-09
-8.46316e-10
-5.26307e-11
-3.63924e-11
-1.0414e-11
-3.63081e-11
3.54146e-11
-3.37945e-12
-2.94565e-11
2.82854e-11
-3.88599e-12
-2.25357e-11
2.03925e-11
3.06091e-12
-1.64326e-11
1.37502e-11
8.25304e-12
-1.37166e-11
1.42445e-11
7.99339e-12
-1.04647e-11
1.42404e-11
5.36819e-12
-6.8763e-12
1.10145e-11
4.61539e-12
-6.10182e-13
5.75676e-12
3.27623e-12
-2.15433e-11
9.52682e-12
1.34614e-11
-2.05485e-12
-8.73119e-12
-2.16306e-11
-1.98212e-11
2.86405e-11
-4.77654e-12
-1.25538e-11
-1.39909e-11
2.25908e-11
-6.89765e-12
-6.31938e-12
-8.24628e-12
1.66877e-11
-1.31603e-11
-2.5872e-12
4.22513e-12
4.62569e-12
-2.76635e-12
2.32471e-11
-1.92905e-11
-1.4349e-11
-4.90748e-12
1.68578e-11
-5.77945e-12
-8.93629e-12
-7.70405e-12
6.26395e-12
-3.72943e-12
2.62679e-13
1.86226e-11
-1.28462e-11
1.45517e-13
1.47738e-11
9.96833e-12
4.53133e-12
5.86333e-12
-1.55531e-11
5.3047e-12
-6.60967e-12
7.94021e-12
3.71366e-12
-5.12214e-13
1.75545e-11
-1.09329e-11
6.0225e-12
9.97885e-12
9.49421e-12
-1.0835e-11
5.27902e-12
1.83249e-12
9.74725e-12
-1.27242e-12
2.37377e-11
-1.64681e-11
1.50913e-11
-6.44882e-12
3.49092e-12
5.67512e-12
-1.80192e-13
6.10601e-12
-9.38928e-12
3.9853e-12
4.37254e-12
4.52281e-12
1.59273e-11
-8.68515e-12
8.17818e-13
8.14608e-12
1.0949e-11
-1.35737e-11
6.77998e-12
1.39053e-11
-6.29338e-12
-1.39919e-11
6.97523e-12
1.85188e-12
-8.40831e-12
-2.98527e-11
-4.06074e-11
4.78935e-11
8.5754e-12
-2.28531e-11
-3.57605e-11
2.95602e-11
-7.98779e-13
-5.32779e-11
-8.84229e-11
8.09515e-11
3.78967e-11
-9.32264e-11
9.7318e-12
3.0217e-11
-9.42815e-11
-4.46788e-11
1.23695e-10
3.84214e-10
1.12449e-10
5.45459e-11
-2.8852e-11
4.72169e-10
-1.74982e-10
-2.36076e-11
9.85414e-12
9.67942e-10
-4.7108e-11
-9.34999e-12
-1.23499e-12
5.42618e-10
1.66691e-10
3.67872e-11
-2.37116e-11
4.32279e-10
-2.06398e-11
1.07436e-10
-4.48866e-11
5.10967e-10
9.65122e-12
8.55664e-11
-5.93423e-12
1.85678e-10
2.44031e-11
3.54671e-11
1.08782e-11
1.07435e-10
-3.6135e-12
2.29008e-11
4.03326e-11
4.86925e-11
-9.6743e-11
7.04576e-11
2.03848e-11
2.69984e-11
-8.79046e-11
8.92148e-11
3.77579e-12
1.27922e-11
-3.50098e-11
3.88276e-11
-2.56686e-12
1.02827e-11
-2.51334e-11
2.11944e-11
-2.90233e-12
6.62994e-12
-1.44484e-11
8.15472e-12
-7.51342e-13
2.97013e-12
-9.16704e-12
4.04638e-12
5.63152e-12
-9.76403e-12
-2.05494e-12
5.43663e-12
4.88262e-12
7.27044e-12
-3.55093e-12
5.45791e-12
1.1123e-11
-5.06755e-12
8.23544e-12
1.37535e-11
-6.24744e-12
4.80362e-12
-8.1016e-13
-1.23231e-12
5.47471e-12
-3.29622e-12
2.33704e-12
-5.46344e-13
-4.84585e-14
8.73471e-12
1.67549e-12
7.07662e-12
1.81984e-11
2.45653e-12
1.74318e-11
4.68832e-12
-2.78842e-11
7.09946e-12
1.59773e-11
7.26429e-12
4.76693e-12
2.8162e-12
7.99466e-11
1.0387e-11
-3.33328e-11
3.89791e-11
8.14006e-11
2.54529e-11
4.86506e-11
-3.35857e-11
3.41448e-11
2.4894e-11
1.58403e-11
2.53766e-11
1.39476e-11
1.91691e-11
1.30807e-11
5.78446e-11
7.45844e-11
1.84071e-11
-2.86903e-11
1.81452e-10
3.61645e-11
1.65974e-11
-3.16781e-11
2.04944e-11
-2.54228e-11
4.79481e-12
1.25836e-11
-3.48882e-11
1.91974e-11
3.13159e-11
1.22362e-11
1.75736e-12
1.73223e-11
7.78034e-12
2.49503e-11
-9.81202e-12
7.25162e-12
1.51357e-11
1.11428e-11
4.19495e-12
3.71649e-11
2.19662e-11
6.32789e-11
-6.37278e-11
2.58389e-11
2.83293e-11
1.41418e-10
2.58961e-10
-3.73338e-11
-9.33436e-11
1.63146e-11
-3.17766e-12
2.82313e-10
3.96201e-11
-6.00251e-11
-1.23107e-11
9.36662e-12
3.42486e-10
6.57625e-11
-6.39139e-11
-5.69398e-11
-5.07853e-12
4.22356e-10
1.01543e-10
-7.05096e-11
-1.0772e-10
-3.17885e-12
4.29018e-10
1.27701e-10
-6.35271e-11
-3.97587e-11
-3.10742e-11
5.81173e-10
1.60598e-10
-9.0717e-11
-2.43726e-10
2.16924e-11
5.77147e-10
1.77235e-10
-9.37012e-11
-4.28194e-11
-3.66832e-11
7.86865e-10
4.37629e-11
1.84618e-10
-1.16459e-10
-3.21635e-10
2.53321e-10
9.94074e-12
1.09269e-10