/*--------------------------------*- C++ -*----------------------------------*\
| =========                 |                                                 |
| \\      /  F ield         | OpenFOAM: The Open Source CFD Toolbox           |
|  \\    /   O peration     | Version:  5.0                                   |
|   \\  /    A nd           | Web:      www.OpenFOAM.org                      |
|    \\/     M anipulation  |                                                 |
\*---------------------------------------------------------------------------*/
FoamFile
{
    version     2.0;
    format      ascii;
    class       surfaceScalarField;
    location    "60";
    object      phiRest;
}
// * * * * * * * * * * * * * * * * * * * * * * * * * * * * * * * * * * * * * //

dimensions      [0 3 -1 0 0 0 0];

internalField   nonuniform List<scalar> 
105314
(
-1.35229e-09
-1.87974e-09
-3.82898e-10
-1.67534e-10
7.95699e-11
-2.91657e-11
-1.66251e-10
-6.84285e-11
1.85221e-10
2.124e-10
-4.96734e-10
-5.45264e-11
3.62849e-10
-7.18433e-10
3.41664e-10
-3.97212e-11
3.81163e-10
-7.79884e-10
3.83894e-10
-1.54884e-11
2.98869e-10
-6.40756e-10
3.17635e-10
5.84024e-11
1.24284e-10
-3.40806e-10
1.42624e-10
1.15489e-10
1.02815e-10
-1.69733e-10
9.82238e-12
3.13025e-11
3.05604e-10
-9.71156e-11
2.4544e-11
-9.84692e-11
2.58623e-11
-1.32701e-10
1.27928e-11
-1.13392e-10
-6.9906e-11
-1.05485e-09
-1.84105e-10
1.55969e-10
3.27931e-09
-1.67648e-09
-2.26334e-09
-5.50318e-10
1.06577e-10
3.12808e-10
-1.03012e-09
-9.70828e-10
1.73749e-09
-2.20564e-10
8.70821e-11
-9.71289e-11
-8.80488e-11
2.02305e-11
-2.83432e-11
-1.24406e-10
-1.67759e-10
1.01654e-10
1.72287e-10
-1.94225e-10
-1.52254e-10
-7.6875e-12
-1.64142e-11
8.59432e-12
-7.43232e-11
1.84374e-10
-1.67914e-10
-9.43969e-11
-1.01881e-10
3.08829e-11
2.15586e-12
-5.48484e-12
-1.15245e-10
-1.99327e-11
-4.20451e-13
3.37238e-11
-4.63239e-11
8.31564e-11
-1.03292e-10
-4.87995e-11
-4.44946e-11
-7.67702e-12
5.02555e-12
8.24171e-13
-1.74046e-11
3.04416e-11
-3.68251e-11
-2.07177e-11
-2.64729e-11
1.03842e-11
-8.19025e-13
-4.96823e-13
-8.78747e-12
1.26467e-11
-1.90197e-11
-1.13171e-11
-1.53441e-11
8.05058e-12
-1.07549e-12
-4.11094e-13
-5.73629e-12
8.76053e-12
4.30312e-14
-1.84192e-11
-6.49791e-12
-3.4419e-12
5.34782e-12
-1.13938e-12
-1.12424e-12
1.83196e-11
-2.39216e-11
-4.32448e-13
-3.55415e-12
-6.78737e-12
5.10155e-12
-1.88617e-12
-1.16389e-11
1.9358e-12
2.84128e-12
1.8554e-12
-1.52337e-12
2.8612e-12
-5.48479e-12
1.20873e-11
4.04122e-12
-1.04262e-11
3.43333e-11
-4.06383e-11
2.71406e-11
3.24968e-11
9.55608e-12
3.37333e-13
6.2193e-11
-6.29139e-11
4.58515e-11
5.22191e-11
2.78992e-11
-7.53565e-12
7.29444e-12
2.7439e-11
1.00137e-11
7.47044e-12
2.7224e-11
2.83714e-12
8.60398e-11
1.91783e-11
-5.05661e-11
1.12494e-11
7.80124e-11
5.36625e-12
-8.58689e-12
7.54217e-11
-9.45528e-13
2.06828e-10
-1.56264e-10
1.02861e-10
2.26227e-10
7.1294e-11
-5.9803e-11
2.29482e-10
-9.25741e-12
-1.68387e-12
3.75517e-11
-1.01275e-10
-2.03559e-10
2.5303e-10
-9.35872e-11
-6.34145e-10
-3.45629e-10
6.52394e-11
-1.53255e-09
-9.04047e-10
2.08189e-09
-3.44702e-10
-3.02073e-10
3.50605e-10
-1.07717e-10
-2.1677e-10
-8.73725e-11
1.61002e-12
4.65799e-13
-8.14956e-11
1.32594e-10
-8.80072e-11
-1.79868e-10
-9.93191e-11
-6.92465e-12
8.15825e-12
1.65872e-11
-1.07735e-10
9.62347e-12
-2.00323e-11
1.88331e-11
-5.57712e-11
-1.22739e-10
-5.91633e-11
1.29923e-10
-5.54891e-11
1.91448e-12
-3.70401e-12
1.50994e-12
-2.40524e-11
5.41263e-11
-5.91674e-11
-2.64067e-11
-2.7671e-11
4.26499e-12
-4.82259e-13
-1.5894e-13
-1.62525e-11
-7.27366e-12
-3.13065e-11
2.71463e-11
-2.03493e-11
-4.47364e-12
7.44432e-12
1.1304e-12
-5.80671e-12
-3.14953e-11
1.6165e-11
-3.38406e-13
-1.09968e-11
1.3361e-12
-7.42911e-12
-1.42497e-11
-2.89186e-11
2.03928e-12
-3.79724e-12
-3.26934e-12
-2.80391e-11
6.58755e-13
-1.01403e-12
-5.24939e-13
-2.82748e-11
-6.20163e-14
1.28968e-12
-9.93111e-13
-3.13642e-11
-1.22621e-12
3.61002e-12
7.04425e-13
-3.27478e-11
-5.21216e-12
7.41861e-12
-8.23773e-13
-3.47824e-11
-9.44359e-12
1.1782e-11
-3.04436e-13
-3.66142e-11
-1.34133e-11
2.01524e-11
-4.90806e-12
-2.1876e-11
-1.96139e-11
6.94462e-12
-2.06902e-12
-6.67649e-12
-1.13879e-11
1.40728e-11
-1.78844e-11
-7.75839e-12
-4.98326e-12
8.23531e-12
-2.17096e-12
-9.2675e-12
-8.98722e-12
1.17844e-11
-1.28884e-12
-8.13121e-12
-1.32386e-11
1.50311e-11
-2.92938e-12
-7.74344e-12
-1.62781e-11
1.85623e-11
-2.67255e-12
-5.90564e-12
-1.92856e-11
2.10569e-11
-3.6097e-12
-4.19059e-12
-2.14174e-11
2.27303e-11
-3.02847e-12
-1.81232e-12
-2.23976e-11
2.34919e-11
-3.47289e-12
-5.52803e-13
-2.22451e-11
2.3219e-11
-2.23379e-12
5.08892e-13
-2.12647e-11
2.24673e-11
-2.26455e-12
1.56052e-12
-2.00842e-11
2.02328e-11
-1.2005e-12
1.95511e-12
-1.74563e-11
1.74572e-11
-3.95686e-13
1.89078e-12
-1.42155e-11
1.36247e-11
6.55074e-13
9.34171e-13
-9.47684e-12
9.25645e-12
1.17692e-12
6.17078e-13
-4.63039e-12
5.04516e-12
-9.76068e-14
-8.10359e-12
5.73198e-12
4.43877e-12
-1.45018e-12
-7.58313e-12
-5.88401e-13
4.11271e-13
-3.4366e-13
4.48896e-12
-1.60174e-11
-9.02637e-12
1.29717e-11
-1.60315e-12
8.73199e-13
-1.04802e-12
-9.2512e-12
-7.8094e-13
-1.38337e-12
-1.3362e-11
-5.18489e-13
-7.4003e-13
-1.64316e-11
-1.66848e-12
-2.10421e-13
-1.85362e-11
-2.07808e-12
1.60971e-12
-2.02975e-11
-2.78791e-12
2.6981e-12
-2.05268e-11
-2.80728e-12
4.31916e-12
-1.9892e-11
-4.12742e-12
5.38577e-12
-1.8345e-11
-4.13975e-12
6.52961e-12
-1.61897e-11
-4.24052e-12
6.99354e-12
-1.33014e-11
-3.44139e-12
7.32226e-12
-9.97931e-12
-3.58878e-12
4.97215e-12
-6.10207e-12
-5.3586e-13
3.7035e-12
-2.83126e-12
-8.8379e-13
1.83346e-11
-1.17898e-11
-1.42289e-11
2.79951e-11
-1.8447e-11
-1.08285e-11
2.85107e-11
-1.00981e-11
-3.83194e-12
2.44562e-11
-4.95793e-12
-4.32226e-13
2.23565e-11
-4.09831e-12
9.84914e-13
1.64922e-11
4.35221e-12
2.84904e-13
1.64103e-11
8.44252e-13
-8.25287e-13
1.67506e-11
8.89935e-13
-5.72573e-13
-3.04242e-12
-2.73341e-12
-3.45363e-11
-3.58881e-12
-3.76519e-12
-3.38552e-11
-3.83271e-13
-1.31238e-12
-3.37378e-11
2.6325e-12
-1.46123e-12
-3.6327e-11
5.58736e-12
6.11264e-13
-3.68341e-11
9.07206e-12
-1.14687e-12
-3.73131e-11
1.31527e-11
-8.92028e-13
-2.43591e-11
1.85865e-11
-1.13887e-11
-5.03072e-12
9.25285e-12
-1.56511e-11
-1.293e-11
-8.44513e-12
4.2596e-12
1.87186e-13
-1.03289e-12
-9.18947e-12
8.61114e-12
3.67872e-13
-9.24253e-12
1.24944e-11
-6.57706e-13
-8.31682e-12
1.58961e-11
-1.79142e-12
-6.98673e-12
1.83766e-11
-1.14502e-12
-4.93114e-12
2.07965e-11
-1.79551e-12
-3.38829e-12
2.20883e-11
-9.01096e-13
-1.54392e-12
2.27739e-11
-1.1266e-12
-4.44987e-13
2.22064e-11
-8.63968e-14
1.44612e-12
2.05305e-11
4.54921e-14
1.99199e-12
1.85702e-11
1.11661e-12
2.69872e-12
1.55554e-11
1.195e-12
2.74304e-12
1.14638e-11
2.11659e-12
4.44514e-12
5.86315e-12
1.69126e-12
-6.56133e-12
6.24373e-12
8.84254e-12
-4.07996e-12
1.70448e-11
-1.28292e-11
1.51977e-12
1.98152e-11
1.95331e-12
3.60321e-12
-1.72995e-11
1.34615e-11
1.75448e-12
4.70219e-12
-1.0866e-11
6.58291e-12
3.18422e-12
-7.39172e-12
8.99141e-12
5.90112e-12
-2.79877e-12
-5.75737e-12
-5.48878e-12
1.63715e-11
-1.25174e-11
-9.50907e-12
-7.17775e-13
4.67207e-12
-2.02627e-13
-1.06311e-11
-1.08296e-12
3.02205e-12
-8.17258e-13
-1.06891e-11
-8.12085e-13
1.84677e-12
-9.76978e-13
-9.36789e-12
-5.69314e-13
8.62321e-13
-1.6145e-12
-7.3702e-12
-3.03569e-13
-3.2152e-13
-1.37288e-12
4.13816e-12
-7.23606e-12
-1.53455e-11
1.10733e-11
5.21906e-12
-7.89456e-13
-5.9516e-13
6.22229e-12
-6.27484e-13
-9.45287e-13
6.30412e-12
-7.77194e-13
-1.16871e-13
5.88546e-12
-1.32625e-12
6.61873e-13
-9.95746e-13
6.74727e-13
-2.77239e-12
-1.17535e-11
2.66396e-12
-1.75667e-11
1.93343e-12
1.80976e-12
-1.91043e-11
1.3888e-13
-1.27436e-11
1.47351e-12
-1.34635e-12
-1.20683e-11
-1.06572e-13
-4.04879e-12
-1.69736e-11
5.71336e-13
7.11616e-13
3.27595e-13
-2.11058e-11
-9.85964e-12
1.50022e-12
4.43166e-14
-6.08698e-12
2.67264e-13
-8.90052e-13
-3.15018e-12
3.79226e-12
-2.50486e-12
1.03357e-11
-1.771e-11
5.51713e-12
-5.38693e-13
-9.19022e-13
-3.93895e-13
-1.84025e-12
-7.28878e-13
-1.06358e-11
-2.39155e-12
-6.3981e-15
-1.36204e-11
-3.53404e-12
5.249e-13
-1.53482e-11
-3.71978e-12
1.53463e-12
-1.64562e-11
-4.85172e-12
2.54254e-12
-1.6733e-11
-4.80251e-12
4.02916e-12
-1.55722e-11
-5.80726e-12
4.63535e-12
-1.35722e-11
-5.38005e-12
5.3425e-12
-1.15204e-11
-5.37754e-12
4.83835e-12
-9.2581e-12
-3.54005e-12
1.90881e-12
-2.52483e-12
-4.52567e-12
1.41388e-11
1.1316e-11
-1.11109e-11
-1.2435e-11
1.16686e-11
-1.69998e-11
1.33682e-11
-1.12201e-11
8.26794e-12
-2.43103e-11
-1.36869e-11
2.64837e-11
2.91981e-13
-2.32779e-11
-6.71621e-12
-1.9994e-11
-1.25186e-11
1.64345e-11
-7.20117e-12
-6.60341e-12
-2.07349e-11
1.57962e-11
-8.45252e-12
-6.77681e-13
-9.45984e-12
1.181e-11
-8.2759e-12
-3.16941e-12
-4.44634e-12
-2.32057e-12
-3.15552e-12
-8.21834e-12
-3.31653e-12
-2.60674e-12
-1.06531e-11
-3.4687e-12
-1.58562e-12
-1.02665e-11
-6.32763e-12
-1.50455e-12
-1.11669e-11
-5.64791e-12
-8.47206e-13
-1.15165e-11
-5.59763e-12
-4.8504e-13
-1.09227e-11
-4.78819e-12
1.30139e-13
-8.9953e-12
-5.24066e-12
-8.99668e-12
-2.04788e-12
-6.30233e-12
1.54816e-11
-2.06809e-11
-5.14431e-12
2.89787e-12
-6.36501e-12
2.30887e-12
4.39238e-12
-1.92548e-11
6.16269e-15
9.71206e-12
6.13797e-13
-2.31896e-12
5.38319e-13
-7.56831e-12
-3.279e-12
1.01075e-12
-8.35746e-12
-3.63169e-12
1.04996e-12
-7.99934e-12
-3.20715e-12
-1.59463e-12
-2.82677e-12
-4.79555e-12
1.04945e-11
-2.2232e-13
-3.86978e-12
-7.99695e-12
6.91426e-12
-2.43929e-11
1.73201e-11
7.28526e-12
-2.24575e-11
1.38681e-11
-1.64229e-11
9.80211e-12
-1.38541e-11
-1.3804e-11
1.35959e-11
-2.36176e-12
-1.14084e-11
-1.90774e-11
-5.8264e-12
-2.5348e-11
-1.06759e-11
-8.70196e-12
-1.36024e-11
6.5403e-12
-9.58488e-12
-6.98347e-12
-1.53209e-11
-5.61623e-12
1.92178e-11
-5.85064e-12
-1.64492e-11
-6.30601e-12
2.16217e-11
-3.45191e-12
-1.78995e-11
-7.34448e-12
2.28449e-11
-1.78196e-12
-1.75179e-11
-5.1393e-12
2.09871e-11
-4.4231e-14
-1.66952e-11
-4.29785e-12
-4.82082e-13
-1.51223e-11
2.1461e-11
-5.90136e-12
1.45485e-13
-1.2853e-11
1.86546e-11
-6.42959e-12
-2.10697e-13
-1.02885e-11
1.52245e-11
-4.58034e-12
1.30754e-13
-7.50864e-12
1.16047e-11
-4.43795e-12
-1.22108e-12
-4.70889e-12
7.5857e-12
-1.5252e-12
-6.92181e-12
-2.00107e-12
4.65511e-13
-6.91904e-12
-1.59307e-11
1.12191e-11
-6.01823e-12
1.51799e-12
-2.83546e-12
4.16415e-13
3.88705e-12
-1.70743e-11
9.23969e-12
-2.07056e-12
-1.74056e-13
-1.92977e-12
-2.57247e-13
-2.98688e-12
-7.21873e-12
1.44014e-14
-9.0162e-12
-4.10883e-12
1.25221e-12
-1.16515e-11
-4.70899e-12
1.51487e-12
-9.09775e-12
-7.86054e-12
1.56375e-12
-9.93777e-12
-7.6295e-12
3.00671e-12
-6.63971e-12
-1.27032e-11
3.4639e-12
-1.13322e-11
-5.57457e-12
4.01107e-12
-1.0285e-11
-5.58355e-12
3.52051e-12
-8.77986e-12
-4.3324e-12
1.14552e-11
-4.98725e-12
9.37978e-13
-3.88591e-12
7.52032e-12
-8.60295e-12
6.29953e-12
-8.59321e-12
-3.99065e-12
1.10255e-11
-4.66403e-12
3.77168e-12
-3.83402e-12
1.14714e-11
-7.58604e-12
8.99398e-12
-6.65986e-12
-3.38245e-12
9.31338e-12
-3.59849e-12
6.95373e-12
-3.67559e-12
1.63623e-11
-4.30251e-12
8.7726e-12
-2.64184e-12
1.15268e-11
-1.29688e-12
2.10143e-11
-4.20679e-12
1.95566e-11
-6.99165e-12
-1.65016e-12
1.31865e-11
7.59706e-13
6.51056e-13
1.27141e-11
-8.32933e-13
-2.79394e-12
2.66032e-11
-2.35001e-11
5.1335e-11
-4.17237e-11
3.38009e-11
7.43574e-13
-3.58848e-12
3.58469e-11
1.60755e-12
-2.80839e-12
3.55235e-11
5.46662e-12
-4.25208e-12
3.01143e-11
4.3164e-12
-1.94936e-12
2.81539e-11
1.41783e-11
-5.75616e-11
4.53415e-11
2.28545e-12
-2.56626e-12
3.79608e-13
-3.59267e-11
-3.29416e-12
-3.55269e-11
-1.09916e-12
-3.50572e-11
3.50135e-12
-1.33919e-12
-3.69968e-11
6.35113e-12
1.17483e-12
-3.75794e-11
9.71905e-12
-6.46371e-14
-3.82652e-11
1.31507e-11
6.87409e-13
-2.74412e-11
1.61283e-11
-8.36568e-12
-7.45575e-12
6.9182e-12
-1.76506e-11
-8.52309e-12
4.59172e-12
7.35037e-13
-9.29838e-12
8.5706e-12
8.15364e-13
-9.2689e-12
1.22549e-11
2.09608e-13
-7.42654e-12
1.53135e-11
-1.26015e-12
-6.64743e-12
1.78403e-11
-2.43065e-13
-4.53666e-12
1.98291e-11
-1.14356e-12
-3.32568e-12
2.09677e-11
-9.04932e-14
-1.00505e-12
2.08523e-11
-3.99035e-13
5.53684e-13
1.99007e-11
7.46895e-13
1.6337e-12
1.76676e-11
1.7828e-12
2.03532e-12
1.53488e-11
2.81982e-12
2.60326e-12
1.20471e-11
2.94041e-12
1.89789e-12
8.19588e-12
3.97325e-12
1.5204e-12
5.11864e-12
1.12207e-12
7.5345e-12
4.48555e-12
-1.65728e-12
5.26833e-12
1.58737e-11
6.20741e-12
2.92428e-12
1.00077e-11
5.79779e-12
1.82438e-12
5.55875e-12
2.12413e-12
7.33285e-12
4.38415e-12
-9.01348e-13
3.71069e-12
-1.71558e-11
1.36134e-11
7.16456e-12
3.58461e-12
-1.01467e-11
7.15854e-12
3.1144e-12
-5.73369e-12
4.83482e-12
6.95569e-12
-2.47225e-12
-4.37821e-12
-5.00913e-12
1.38472e-11
-1.01939e-11
-8.46617e-12
-1.03841e-12
4.94111e-12
1.85252e-13
-1.07038e-11
-1.65537e-12
3.1926e-12
7.00355e-13
-1.20158e-11
-1.4945e-12
2.55155e-12
2.54812e-13
-1.25282e-11
-1.16998e-12
1.84709e-12
-1.64889e-13
-1.17661e-11
-7.89729e-13
7.48176e-13
-7.20906e-13
-9.3989e-12
-8.22177e-13
3.99754e-13
-1.94513e-12
-6.29966e-12
-2.53287e-13
-1.39293e-12
-1.45334e-12
4.61445e-12
-1.40958e-11
-7.50824e-12
1.06899e-11
6.57175e-12
-1.19866e-12
-1.01211e-12
8.00674e-12
-9.07528e-13
-1.34989e-12
8.52238e-12
-6.23115e-13
-6.8242e-13
8.45612e-12
-1.35534e-12
2.51483e-13
7.69533e-12
-2.03607e-12
1.30232e-12
6.02048e-12
-2.14537e-12
2.16484e-12
-1.49905e-12
1.47202e-12
-1.51663e-12
-1.42534e-11
4.12426e-12
3.60003e-12
6.73444e-13
1.82629e-11
-7.55385e-11
-2.2633e-12
6.2465e-11
7.48914e-12
2.47036e-11
-1.06203e-10
8.87944e-11
-1.41111e-11
1.56598e-11
1.06735e-10
2.19316e-11
-1.22591e-10
-1.42475e-11
2.48357e-11
1.30654e-10
2.41742e-11
-1.48655e-10
-1.5351e-11
3.78626e-11
1.56875e-10
1.36462e-11
-1.70296e-10
-1.32529e-11
5.51426e-11
1.74098e-10
1.08153e-11
-1.90114e-10
-1.20801e-11
8.2956e-11
1.91324e-10
-5.0518e-12
-2.04608e-10
-9.47889e-12
9.39301e-11
2.01755e-10
-1.98202e-10
-3.97797e-12
-1.05517e-11
1.66379e-10
-6.59876e-12
1.93004e-10
-2.39111e-10
-1.97429e-11
3.20179e-10
-2.12875e-10
2.4734e-10
1.00855e-09
-9.71981e-10
1.75623e-10
2.21169e-10
-4.8015e-12
4.67197e-11
1.20891e-11
-4.63027e-11
-8.88111e-11
-2.23635e-10
-3.16893e-10
3.43215e-10
-1.99421e-10
2.03593e-10
-8.27131e-12
-1.89364e-11
2.74964e-10
1.99226e-10
-1.73842e-11
-2.17831e-10
1.04239e-10
4.46674e-10
1.89198e-10
-1.05501e-11
-3.05307e-10
-4.505e-11
3.49029e-10
1.8124e-10
-1.72768e-10
-1.14298e-11
1.00601e-10
5.50013e-10
1.71846e-10
-7.95242e-12
-2.82395e-10
-8.24807e-11
4.60218e-10
1.59138e-10
1.35973e-10
-1.45928e-11
-1.90725e-10
6.46383e-10
1.42774e-10
-1.39049e-10
-1.91055e-10
1.16647e-12
5.32015e-10
1.24034e-10
1.5781e-10
-1.63502e-10
-3.97554e-12
7.31856e-10
1.02626e-10
-1.33211e-10
-1.78574e-10
9.31889e-12
5.88534e-10
7.78178e-11
1.58941e-10
2.02438e-12
-9.54618e-11
8.02619e-10
5.04549e-11
-2.22872e-10
-5.94832e-11
1.78163e-11
6.39958e-10
2.10646e-11
1.44796e-10
-1.73339e-11
1.41337e-11
-1.38135e-11
2.78413e-11
-2.75076e-10
3.35842e-11
-3.27202e-11
4.4314e-12
-1.9603e-12
-3.44646e-11
7.07695e-12
1.01812e-12
-3.46154e-11
9.50788e-12
3.61515e-13
-3.5538e-11
1.26174e-11
1.45565e-12
-2.62539e-11
1.3754e-11
-6.9102e-12
-4.84214e-12
-1.40028e-11
-4.90181e-13
-6.81292e-12
3.5445e-13
6.20791e-12
-8.28377e-12
6.64574e-12
3.39561e-12
-8.28221e-12
1.02757e-11
1.97747e-12
-6.64077e-12
1.28383e-11
8.33655e-13
-5.58187e-12
1.47565e-11
2.02489e-12
-3.58768e-12
1.66373e-11
1.19764e-12
-2.22881e-12
1.71828e-11
2.42621e-12
-5.11353e-13
1.70799e-11
2.0552e-12
7.62162e-13
1.54803e-11
3.14707e-12
1.47987e-12
1.35299e-11
3.42015e-12
1.89272e-12
1.07771e-11
4.15887e-12
2.04793e-12
7.55016e-12
4.34172e-12
3.11885e-12
5.01062e-12
2.1144e-12
-5.02206e-12
7.57821e-12
3.64925e-12
-3.08669e-12
1.61621e-11
-1.15803e-11
3.62149e-12
1.5566e-11
4.55274e-12
3.76559e-12
1.01163e-11
5.61321e-12
4.27733e-12
6.35211e-12
3.14391e-12
-4.67495e-12
9.33361e-12
3.72024e-12
-4.10181e-12
1.6064e-11
-1.07963e-11
3.99295e-12
1.43579e-11
7.04668e-12
7.08723e-12
6.27316e-12
4.24613e-12
-6.5105e-12
1.00999e-11
7.62882e-12
-4.13114e-12
1.81226e-11
-1.26402e-11
3.92621e-12
1.43809e-11
9.91537e-12
4.64798e-12
-1.34658e-11
7.83259e-12
4.91159e-12
-6.23119e-12
4.73222e-12
7.43881e-12
-1.29188e-12
-4.96978e-12
-6.12919e-12
1.51544e-11
-1.02871e-11
-9.29882e-12
-1.4681e-12
4.47354e-12
1.32361e-12
-8.06184e-12
-4.24349e-12
2.54489e-12
4.61481e-13
-5.17271e-12
-5.10463e-12
1.23823e-11
-1.01672e-11
-7.45578e-12
-4.38509e-13
8.37472e-13
1.88409e-12
-9.11129e-12
-6.50109e-13
-3.84093e-14
2.34399e-12
-1.02e-11
-4.83861e-13
-2.77923e-13
1.85037e-12
-9.93913e-12
-5.22211e-13
-4.0129e-13
6.62387e-13
-8.40506e-12
-2.31522e-13
-8.27598e-13
-4.7525e-13
-5.82264e-12
-1.95351e-13
-1.794e-12
-5.93356e-13
4.72316e-12
-8.01391e-12
-1.262e-11
1.00881e-11
6.17346e-12
-5.39121e-13
-1.10675e-12
7.53075e-12
6.66733e-14
-1.65574e-12
7.91461e-12
-4.24168e-13
-4.82088e-13
7.3722e-12
-5.60475e-13
6.189e-13
6.06184e-12
-8.8516e-13
1.54538e-12
-7.7742e-13
1.2961e-12
1.30723e-11
5.52592e-12
-1.61831e-11
8.41805e-12
5.35175e-12
-1.31491e-12
2.13571e-12
6.02199e-12
4.43461e-12
-5.89764e-11
2.87023e-11
-7.43167e-12
3.92928e-11
1.32497e-11
3.44821e-11
-9.01252e-11
-2.19779e-11
6.88054e-11
2.27482e-11
1.00272e-10
3.44236e-11
-1.14445e-10
-2.97501e-11
3.60635e-11
1.19984e-10
4.38103e-11
-1.43935e-10
-3.3176e-11
5.31911e-11
-3.64221e-11
1.61495e-10
-1.77403e-10
3.52008e-11
7.03544e-11
1.97425e-11
1.72747e-10
-3.69789e-11
-1.72677e-10
1.18153e-10
-5.20181e-11
-2.91084e-11
2.33857e-10
-2.00531e-10
1.23884e-10
2.30728e-10
-2.91419e-11
5.45615e-12
-2.12776e-10
2.04971e-10
-1.63887e-11
2.69944e-10
-1.0589e-10
-2.28754e-10
1.77826e-10
-1.43595e-11
2.73713e-10
-4.77929e-13
-2.31733e-10
2.99071e-10
4.56223e-12
-1.29286e-10
-2.09399e-10
2.51431e-10
1.99414e-11
2.03749e-10
-2.49906e-11
-1.5106e-10
2.06698e-10
1.161e-10
-2.34485e-11
1.96148e-10
3.0465e-11
1.99858e-10
-1.84394e-10
-3.53819e-11
2.82802e-10
-9.27958e-11
2.3771e-10
-2.79769e-11
2.76211e-10
1.96105e-10
-2.97908e-11
3.94994e-11
4.16427e-10
2.11724e-10
-1.88658e-11
-1.43881e-10
3.57704e-10
2.0088e-10
-2.35359e-11
6.2615e-11
5.18559e-10
1.95946e-10
-1.41166e-11
-1.70842e-10
4.37564e-10
1.76725e-10
8.55328e-11
-2.21312e-11
6.1804e-10
1.61524e-10
-1.91608e-10
-7.62156e-12
5.10142e-10
1.07763e-10
1.3735e-10
-1.31864e-11
7.09226e-10
-2.16556e-10
1.15916e-10
4.17587e-12
5.73189e-10
8.75839e-11
-1.01531e-12
1.27279e-10
7.87962e-10
5.58106e-11
1.96233e-11
-2.39759e-10
6.3057e-10
1.74226e-11
1.40695e-10
3.91899e-11
-2.61629e-10
-2.1491e-11
-8.07935e-12
-9.89927e-13
7.11639e-12
-2.17488e-11
-1.01229e-11
2.87667e-12
7.50407e-12
-2.09747e-11
-1.24561e-11
3.62169e-12
8.06031e-12
-2.01833e-11
-1.35207e-11
3.14826e-12
9.58108e-12
-1.70237e-11
-1.64633e-11
2.64024e-12
1.06636e-11
-5.55178e-12
8.01835e-13
-1.19102e-12
-1.10825e-11
-3.74672e-12
-6.14944e-12
3.26198e-12
1.08238e-12
-3.0256e-12
-8.91888e-12
6.02582e-12
2.17195e-12
-2.50389e-12
-1.05203e-11
2.75297e-12
7.24579e-12
-1.66124e-12
-1.16207e-11
7.9078e-12
2.87047e-12
-8.92697e-13
-1.20677e-11
7.9358e-12
3.3635e-12
-1.52547e-13
-1.15965e-11
7.61502e-12
3.24145e-12
5.27563e-13
-1.06262e-11
6.70337e-12
3.24277e-12
3.11198e-12
-8.1801e-12
3.64159e-12
1.95411e-12
-4.31009e-12
6.58235e-12
3.12018e-12
-2.28055e-12
-2.77856e-13
-8.14815e-12
-1.33677e-11
1.74832e-11
-3.04037e-12
-3.72268e-12
-8.61922e-12
1.5104e-11
-4.18385e-12
7.55429e-12
-3.08574e-12
-3.3252e-12
1.5171e-11
-1.06953e-11
3.32622e-12
1.45193e-11
4.87962e-12
3.76125e-12
9.53391e-12
5.59698e-12
4.50588e-12
5.9881e-12
3.3836e-12
-4.49305e-12
1.00741e-11
2.98386e-12
-4.0593e-12
1.71139e-11
-1.15349e-11
4.79849e-12
1.32186e-11
9.17082e-12
2.13374e-12
1.07319e-11
6.29086e-12
2.18924e-12
3.79827e-12
2.41941e-12
8.5047e-12
2.20734e-12
-8.94138e-13
6.54308e-12
9.05905e-12
7.28353e-12
-5.66393e-12
1.11029e-11
3.98568e-12
-2.8817e-12
1.84999e-11
-1.15995e-11
3.18574e-12
1.40418e-11
1.23754e-11
3.57371e-12
-1.33358e-11
6.93494e-12
6.01292e-12
-6.35822e-12
4.33547e-12
1.42667e-12
4.16984e-12
-4.95955e-12
-5.44701e-12
-8.53551e-12
1.25835e-11
-8.21963e-12
-8.11065e-13
2.6822e-12
1.38897e-12
-9.00376e-12
-2.87748e-12
4.82872e-12
-1.16717e-12
-6.27011e-12
-4.63439e-12
1.09384e-11
-9.03803e-12
-6.86996e-12
4.62172e-13
-3.15592e-12
3.29355e-12
-9.47725e-12
7.48645e-13
-4.28064e-12
6.13917e-12
-1.16155e-11
5.44406e-13
-5.18981e-12
6.78352e-12
-1.26475e-11
6.07241e-13
-5.93856e-12
6.36321e-12
-1.26793e-11
3.87898e-13
-4.7788e-12
4.42239e-12
-1.14088e-11
5.44723e-13
-4.31777e-12
2.50225e-12
-9.14738e-12
7.04934e-13
-3.90344e-12
9.36756e-13
-5.45224e-12
4.14509e-13
-3.20014e-12
-9.09789e-13
-2.9377e-12
2.91719e-13
-2.02021e-12
-7.86198e-13
3.01792e-12
-3.63046e-12
-7.13417e-12
4.80906e-12
4.52714e-12
4.47098e-13
-1.66475e-12
8.2665e-12
-1.00098e-12
-2.32418e-12
9.77226e-12
-2.59509e-12
1.11714e-11
-1.68233e-12
1.13037e-11
-1.45995e-13
1.01489e-11
1.48394e-12
8.24259e-12
2.41218e-12
6.90147e-12
2.92709e-12
2.72924e-12
-7.40196e-19
1.41142e-11
3.54206e-12
8.26531e-12
7.44484e-12
-1.28e-13
2.13525e-12
9.1294e-12
1.67301e-11
3.43937e-11
2.74744e-11
-5.37153e-11
-1.57539e-11
3.08018e-11
-8.61084e-11
3.80502e-11
6.1359e-11
-2.73729e-11
3.85249e-11
9.21324e-11
5.25914e-11
-1.08084e-10
-4.4363e-11
6.1541e-11
-4.36956e-11
5.02896e-11
1.12588e-10
-1.42199e-10
8.58074e-11
6.04352e-11
1.39139e-10
-5.56813e-11
-1.68161e-10
1.28513e-10
-6.45439e-11
1.65833e-10
4.96997e-11
-1.93696e-10
1.39279e-10
-1.64584e-10
-6.92103e-11
1.79657e-10
4.33686e-11
2.38619e-10
-2.36221e-10
1.91991e-11
-6.56445e-11
1.83325e-10
2.6156e-10
-4.25604e-10
-2.58084e-10
1.63022e-10
1.44983e-09
2.02324e-10
1.38539e-10
-4.14531e-11
1.03028e-11
-5.26817e-11
-1.15934e-10
-1.36371e-10
-1.07034e-10
-8.49802e-10
4.2351e-10
-2.38722e-10
1.48221e-10
-2.55975e-11
-4.58521e-11
3.50146e-10
1.3839e-10
1.00299e-10
-1.28097e-10
-3.72303e-11
5.87563e-10
1.26393e-10
-9.25236e-11
-1.92868e-11
-2.52002e-10
4.63914e-10
1.11457e-10
8.35154e-11
-6.52146e-11
-6.10878e-12
7.1052e-10
7.95496e-11
-1.48141e-10
2.44474e-11
-2.02461e-10
1.39916e-10
-6.35476e-10
-3.78565e-11
2.65431e-09
-2.87731e-10
1.85567e-10
4.68672e-11
-4.56389e-11
6.8108e-11
-3.68794e-10
-4.47745e-10
-1.19532e-10
4.05027e-11
-4.81985e-10
9.57296e-10
-5.93622e-10
-1.39496e-11
-2.45552e-10
3.57431e-11
7.37526e-10
-2.79125e-11
5.73528e-11
1.41383e-10
4.89474e-11
1.08277e-09
-5.00213e-11
-2.91236e-10
7.84577e-11
-8.24428e-11
3.89612e-09
-1.09954e-09
-2.13503e-10
-4.481e-10
-2.06693e-11
2.18225e-10
-1.28341e-11
1.62906e-10
-9.4246e-11
-6.34547e-10
-6.71042e-10
-6.61781e-10
-5.23916e-11
2.8091e-10
1.37491e-10
2.32976e-10
-1.0199e-10
-9.05678e-12
-4.90177e-12
-7.92669e-12
-8.99779e-12
-2.69992e-12
-2.18035e-12
-1.2892e-11
-2.44693e-11
2.76172e-11
-1.29452e-11
8.61336e-12
-1.82922e-12
-6.73165e-12
-1.17737e-11
1.2722e-11
-4.89577e-12
-8.99913e-12
-1.01158e-11
1.30179e-11
-5.96424e-12
-8.71276e-12
-8.45699e-12
1.33853e-11
-8.29497e-12
-6.75021e-12
-6.6286e-12
1.26681e-11
-6.89177e-12
-7.60574e-12
-4.99853e-12
1.22081e-11
-7.03396e-12
-6.8052e-12
-3.27418e-12
1.19438e-11
-6.64742e-12
-7.02145e-12
-2.03513e-12
1.08861e-11
-5.95049e-12
-6.17533e-12
-3.32041e-12
9.17846e-12
-3.3491e-12
-4.54466e-12
-5.82257e-12
4.33054e-12
-2.4479e-12
6.19386e-13
-5.09045e-13
1.66022e-11
-9.96438e-12
-1.19519e-11
5.03009e-13
1.39979e-11
-6.67912e-12
-8.33129e-12
-1.84773e-12
1.06277e-11
-3.35569e-12
-4.92154e-12
-3.38728e-12
-3.17382e-12
6.76767e-12
-2.0544e-12
-2.57679e-12
-5.17849e-12
-8.26343e-12
1.26311e-11
-3.76123e-12
8.82671e-12
-4.18321e-12
-3.45921e-12
1.53853e-11
-1.01749e-11
4.22587e-12
1.07711e-11
9.21491e-12
6.07171e-12
6.62137e-12
4.75135e-12
-3.69839e-12
2.66236e-12
1.1484e-11
-4.37655e-12
1.10151e-12
1.93308e-11
-1.33991e-11
1.33751e-11
-6.26832e-12
5.74778e-12
7.48281e-12
-5.36369e-12
5.50831e-12
-5.95087e-12
1.16849e-11
2.93785e-12
-2.92424e-12
1.90625e-11
-1.19691e-11
2.72917e-12
1.54935e-11
1.25247e-11
5.1409e-12
5.51055e-12
6.1195e-12
-4.73207e-12
7.91865e-12
2.61002e-12
-6.5573e-13
1.45302e-11
-7.99215e-12
3.87558e-12
9.17043e-12
9.40276e-12
-1.06172e-11
5.59798e-12
6.70888e-12
2.186e-12
-9.51942e-12
-5.85568e-12
-9.1679e-12
1.39254e-11
-1.14552e-11
-1.777e-11
1.76399e-11
2.06596e-12
-8.4898e-12
-1.24985e-12
3.01989e-12
-4.73581e-12
-6.06801e-12
-2.39065e-11
1.81339e-11
3.3508e-12
-1.30342e-11
-2.83949e-11
7.01712e-12
2.83439e-11
-1.02581e-11
-2.20694e-12
5.20321e-12
-5.7726e-12
-3.93667e-12
5.18969e-12
1.69807e-11
-2.8492e-11
-7.23449e-12
7.77747e-12
-2.57128e-11
2.1233e-11
-9.11099e-12
7.07072e-12
-2.4443e-11
1.92486e-11
-3.64333e-12
-1.67771e-14
-5.5532e-12
1.02148e-13
-2.22167e-12
1.7286e-12
-8.03446e-12
4.88417e-12
-2.97634e-12
1.95707e-12
-5.97903e-12
4.77651e-12
-2.01941e-12
9.5622e-13
-4.36534e-12
2.45207e-12
3.8409e-12
-8.14458e-12
-3.79513e-12
6.0794e-12
3.63064e-12
2.43641e-12
-1.27012e-12
2.90399e-12
3.57664e-12
-8.93029e-13
4.88745e-12
-2.71647e-13
1.15582e-11
-1.25734e-11
-3.61815e-14
8.61316e-12
4.82572e-12
6.16347e-12
5.94644e-12
5.99022e-12
5.25098e-11
-1.31354e-11
-1.12001e-11
9.72705e-11
-4.41469e-11
-3.18674e-11
2.59801e-11
5.27263e-12
1.35361e-10
-4.05943e-11
-5.34672e-11
-1.12446e-12
5.70945e-11
1.87046e-10
-4.38515e-11
-8.40745e-11
8.14257e-11
-5.18572e-12
2.86972e-10
-7.80262e-11
-1.32415e-10
-3.97199e-12
1.14486e-10
2.62995e-10
4.61757e-11
1.22098e-10
-1.06765e-11
-1.33621e-10
4.2844e-10
-1.37539e-10
1.49959e-10
-1.92379e-10
1.45132e-11
3.25652e-10
7.96178e-11
1.64949e-10
6.15992e-12
-1.4794e-10
4.98541e-10
-1.1331e-10
2.4787e-11
1.60943e-10
-2.45307e-10
2.71679e-10
1.67623e-10
-2.19369e-10
1.56112e-09
-1.86428e-11
-8.92801e-11
-8.41589e-10
-2.62021e-10
-1.67121e-10
-3.36948e-10
1.66354e-10
-3.06722e-11
-2.70408e-10
2.39029e-10
-7.05502e-11
-4.35404e-11
-2.16673e-10
2.78723e-10
4.5056e-11
-1.7325e-10
1.58228e-10
-6.97295e-11
1.48064e-10
1.12355e-10
-5.7399e-11
2.0287e-10
6.06081e-11
-1.63703e-10
1.18138e-10
-6.98524e-11
3.13494e-10
-6.15394e-11
1.52602e-10
-5.34687e-11
3.3672e-10
6.50769e-11
1.01811e-10
-5.17273e-11
4.95279e-10
-1.33676e-10
1.31802e-10
-3.02953e-11
4.68518e-10
8.34999e-11
7.57676e-11
-2.10534e-11
9.2944e-11
-1.99107e-10
1.87457e-11
7.43136e-10
-2.15183e-10
2.12128e-11
1.63373e-11
-4.72558e-10
7.19214e-12
8.61491e-11
1.83133e-11
6.54291e-10
1.34759e-10
-6.81492e-11
2.39829e-11
-7.37697e-10
9.60312e-10
-2.77475e-10
-9.67742e-11
5.42738e-11
8.12035e-10
1.63168e-10
6.3576e-11
-1.06385e-10
-1.37337e-10
-3.16405e-10
1.16196e-10
1.15266e-09
-4.50109e-10
-1.34852e-10
1.57446e-10
-8.62468e-10
-6.34834e-10
1.27956e-11
-6.6584e-10
-1.22838e-09
-6.60772e-10
-7.68365e-12
-2.55932e-11
-6.8213e-12
-2.38618e-11
1.05291e-11
4.59267e-13
-1.91316e-11
9.3357e-12
-1.04966e-12
-1.44676e-11
6.85334e-12
1.86702e-12
-9.9806e-12
4.97092e-12
3.20979e-12
-7.80483e-12
4.59928e-12
5.43316e-12
-5.59475e-12
6.1057e-12
3.62808e-12
-3.42616e-12
5.3607e-12
3.35686e-12
3.77611e-13
3.10671e-12
2.26811e-12
-1.11606e-11
4.87226e-12
6.60268e-12
6.32193e-14
-3.19503e-12
-1.26653e-11
-1.26298e-11
1.73287e-11
-1.02711e-12
-8.39228e-12
-8.33107e-12
1.45548e-11
-3.01178e-12
-4.43885e-12
-5.11241e-12
1.15356e-11
-5.846e-12
-3.76932e-12
-6.91124e-13
7.29446e-12
7.90683e-13
1.71541e-11
-1.30032e-11
-1.07881e-11
-1.91823e-12
1.29753e-11
-4.37773e-12
-5.88913e-12
-3.53168e-12
8.95792e-12
-4.47707e-12
-2.8677e-12
1.56609e-11
-9.90923e-12
2.78666e-12
1.19885e-11
9.84358e-12
5.17708e-12
4.85314e-12
-1.23534e-11
5.10979e-12
-3.68758e-12
9.87048e-12
1.70772e-12
-2.7138e-12
1.59714e-11
-9.23865e-12
7.28888e-12
8.98395e-12
9.56907e-12
-6.59534e-12
3.09674e-12
-1.3519e-12
1.21392e-11
7.92482e-13
2.20111e-11
-1.39059e-11
1.416e-11
-5.24721e-12
4.13631e-12
5.39037e-12
-1.79901e-12
6.4323e-12
-7.36947e-12
4.69894e-12
3.53613e-12
3.27066e-12
1.48808e-11
-7.48214e-12
1.23677e-12
7.57247e-12
1.07704e-11
-1.19225e-11
6.03386e-12
1.29557e-11
-5.83028e-12
-1.31344e-11
6.39925e-12
2.70564e-12
-7.89339e-12
-2.75498e-11
-4.08003e-11
4.70843e-11
8.13136e-12
-2.20495e-11
-3.58883e-11
3.04815e-11
-9.36607e-14
-5.18472e-11
-8.82151e-11
8.03669e-11
3.76458e-11
-9.30473e-11
1.07148e-11
3.04854e-11
-9.28845e-11
-4.47217e-11
1.21295e-10
3.85438e-10
1.14395e-10
5.503e-11
-2.90283e-11
4.71311e-10
-1.71718e-10
-2.31959e-11
9.70734e-12
9.66358e-10
-4.56874e-11
-9.96654e-12
-8.03598e-13
5.44646e-10
1.69385e-10
3.61629e-11
-2.33391e-11
4.31258e-10
-1.7818e-11
1.0719e-10
-4.40313e-11
5.10228e-10
1.05683e-11
8.57779e-11
-5.35093e-12
1.86787e-10
2.5411e-11
3.52915e-11
1.14082e-11
1.06989e-10
-1.67575e-12
2.24196e-11
3.98836e-11
4.95014e-11
-9.53414e-11
7.01842e-11
2.26747e-11
2.4631e-11
-8.63412e-11
8.85368e-11
6.36543e-12
1.08076e-11
-3.242e-11
3.79215e-11
-3.8628e-13
8.52836e-12
-2.20929e-11
2.0316e-11
-1.29805e-12
5.00711e-12
-1.1939e-11
7.84348e-12
-9.56671e-14
2.15814e-12
-7.17008e-12
3.80954e-12
3.64502e-12
-5.95474e-12
-6.11975e-13
2.82614e-12
2.89106e-12
4.97505e-12
-2.06322e-12
2.94885e-12
7.79648e-12
-2.84754e-12
5.34612e-12
1.014e-11
-4.00916e-12
3.28496e-12
-1.11893e-12
-3.07684e-13
3.48779e-12
-2.59639e-12
1.1827e-12
3.33126e-13
-9.56111e-13
8.04828e-12
2.93743e-13
6.15497e-12
1.7226e-11
1.42842e-12
1.69558e-11
4.32899e-12
-2.84068e-11
4.7182e-12
1.73684e-11
7.74845e-12
3.71034e-12
3.17427e-12
7.87154e-11
1.07728e-11
-3.46753e-11
3.74323e-11
8.06764e-11
2.42429e-11
4.82717e-11
-3.37783e-11
3.35138e-11
2.45072e-11
1.52282e-11
2.51717e-11
1.34072e-11
1.90569e-11
1.31211e-11
5.57359e-11
7.54881e-11
1.84547e-11
-2.95636e-11
1.8058e-10
3.6212e-11
1.66031e-11
-3.23903e-11
2.03275e-11
-2.60872e-11
4.66753e-12
1.41163e-11
-3.47591e-11
1.93865e-11
3.12167e-11
1.24583e-11
1.57256e-12
1.71859e-11
7.68653e-12
2.50992e-11
-9.98676e-12
7.61028e-12
1.47305e-11
1.09723e-11
4.4352e-12
3.70225e-11
2.26387e-11
6.23813e-11
-6.33989e-11
2.41017e-11
3.12465e-11
1.38236e-10
2.47182e-10
-4.21544e-11
-9.19872e-11
2.83039e-11
-3.10865e-12
2.62962e-10
2.68181e-11
-5.72131e-11
7.58285e-12
7.03243e-12
3.11488e-10
4.61421e-11
-5.51645e-11
-2.718e-11
-1.23243e-11
3.74599e-10
7.39167e-11
-5.36972e-11
-6.40436e-11
-1.92882e-11
3.68732e-10
9.1669e-11
-4.36702e-11
8.45124e-12
-5.05854e-11
4.92861e-10
1.18415e-10
-6.30702e-11
-1.65702e-10
-1.37738e-11
4.76984e-10
1.24572e-10
-5.76278e-11
1.98407e-11
-7.091e-11
6.46113e-10
-6.80511e-12
1.22755e-10
-8.21745e-11
-2.02906e-10
1.04186e-10