/*--------------------------------*- C++ -*----------------------------------*\
| =========                 |                                                 |
| \\      /  F ield         | OpenFOAM: The Open Source CFD Toolbox           |
|  \\    /   O peration     | Version:  5.0                                   |
|   \\  /    A nd           | Web:      www.OpenFOAM.org                      |
|    \\/     M anipulation  |                                                 |
\*---------------------------------------------------------------------------*/
FoamFile
{
    version     2.0;
    format      ascii;
    class       volVectorField;
    location    "60";
    object      UHyper;
}
// * * * * * * * * * * * * * * * * * * * * * * * * * * * * * * * * * * * * * //

dimensions      [0 1 -1 0 0 0 0];

internalField   nonuniform List<vector> 
36177
(
(0.0626719 -0.0417549 0.0105251)
(0.020827 -0.0122765 0.00207769)
(0.0265911 -0.013185 0.00246537)
(0.0334851 -0.0151786 0.00360851)
(0.0368312 -0.0140657 0.00588162)
(0.0349853 -0.0113571 0.00608479)
(0.0272184 -0.00762177 0.00563044)
(0.0184111 -0.00937942 0.00694198)
(0.014275 -0.00916903 0.0032315)
(0.020155 -0.0118893 0.00225347)
(0.0244919 -0.0139119 0.00289363)
(0.0240649 -0.0138738 0.00204902)
(0.0189768 -0.0113811 0.00199421)
(0.0513001 -0.0278661 0.00659353)
(0.081352 -0.0361549 0.0118583)
(0.0591188 -0.0302529 0.00920499)
(0.0224888 -0.0133077 0.00497424)
(0.0194626 -0.00782155 0.00138186)
(0.0278001 -0.00581532 0.000991668)
(0.0220467 -0.00073372 -0.000615523)
(0.020343 0.00220407 -0.00354317)
(0.00940707 0.00263383 -0.00191285)
(0.00760762 0.00298933 -0.00193723)
(0.00595919 0.00205659 -0.00166367)
(0.00314526 0.00157252 -0.000892019)
(0.00242234 0.00119994 -0.000896911)
(0.00126425 0.000800692 -0.000658605)
(0.000817402 0.000537767 -0.000512878)
(0.000422989 0.000352789 -0.000381701)
(0.000131702 9.28013e-05 -0.000158108)
(1.71039e-05 -8.85148e-05 1.76449e-05)
(-9.14428e-05 -0.000302694 0.000211547)
(-3.5309e-05 -0.000200027 0.000180651)
(-5.04706e-05 -0.000162276 0.00014176)
(3.57272e-05 1.26946e-05 -2.11689e-06)
(2.9039e-05 -3.65527e-05 1.61411e-05)
(0.000162913 0.000121181 -8.35071e-05)
(0.000506878 0.000424189 -0.000345844)
(0.000944505 0.000660417 -0.000530729)
(0.00161327 0.000979435 -0.000758447)
(0.00226177 0.00151023 -0.000883802)
(0.00229948 0.00132201 -0.00067697)
(0.00264045 0.00123812 -0.000853087)
(0.00406821 0.00190409 -0.000755651)
(0.0058683 0.00275184 -0.000777003)
(0.0066529 0.00220118 -0.00180548)
(0.0120754 0.00410569 -0.0014018)
(0.0165769 0.00615239 -0.00191144)
(0.0200179 0.000998436 -0.000740083)
(0.0296615 -0.0109796 0.00358263)
(0.018222 -0.00808732 0.00203231)
(0.0244182 -0.0157715 0.00328675)
(0.0499907 -0.0169766 0.00303903)
(0.0679786 -0.0223499 0.00121224)
(0.0308562 -0.0105273 0.00126069)
(0.0233495 -0.00319628 -0.00491374)
(0.0188463 -0.000275209 -0.00587587)
(0.00922236 0.00141118 -0.00306095)
(0.00739571 0.00156343 -0.00292059)
(0.00665424 0.00151237 -0.00254041)
(0.00364079 0.001404 -0.00138527)
(0.00303314 0.00116666 -0.00138882)
(0.00153118 0.000932251 -0.000857355)
(0.000868805 0.000594059 -0.000725459)
(0.000492189 0.000388636 -0.000506096)
(0.000132016 8.06913e-05 -0.000207993)
(-2.13902e-05 -0.000112955 2.73423e-05)
(-7.60878e-05 -0.000313625 0.000168174)
(-8.80097e-05 -0.000488957 0.000341972)
(-5.05263e-06 -0.000160424 0.000558539)
(1.40974e-05 -0.000113272 0.000555789)
(2.78645e-05 -6.34305e-05 0.000563137)
(4.57972e-05 -2.29421e-05 0.000567342)
(5.56282e-05 2.74427e-05 0.000572536)
(6.91417e-05 8.04511e-05 0.000568111)
(6.00503e-05 0.00013729 0.000525088)
(5.48091e-05 0.000168103 0.000537397)
(3.66741e-05 0.00015526 0.000351709)
(-3.68328e-06 0.000128302 0.000219944)
(1.15785e-05 0.000167001 0.000231748)
(3.15384e-06 0.000199467 0.000225285)
(-2.20573e-06 0.000221271 0.000208011)
(-8.60353e-06 0.000237729 0.00018345)
(-9.91256e-06 0.000247881 0.000159966)
(-1.52194e-05 0.000252778 0.000138735)
(-1.4774e-05 0.000249778 0.000112956)
(-1.52878e-05 0.000239548 8.81057e-05)
(-1.28122e-05 0.000229304 6.2167e-05)
(-9.84792e-06 0.000212459 4.06052e-05)
(-4.40435e-06 0.000186708 2.69723e-05)
(-6.29074e-08 0.00015387 1.82194e-05)
(-1.57776e-06 0.000117694 1.2597e-05)
(-7.19016e-06 0.000149507 1.19228e-05)
(-1.09031e-05 0.000162553 1.9509e-05)
(-1.53697e-05 0.000188893 3.39188e-05)
(6.72197e-06 0.000114391 1.29992e-05)
(-9.29116e-06 0.000152178 2.41893e-05)
(-1.34895e-05 0.000183272 3.77276e-05)
(-1.97213e-05 0.000204844 5.16744e-05)
(-2.03384e-05 0.000220079 7.26999e-05)
(-2.16026e-05 0.000233825 9.26617e-05)
(-2.04981e-05 0.000241577 0.000114797)
(-2.01733e-05 0.000244117 0.000134684)
(-1.69497e-05 0.000237192 0.000154223)
(-1.46523e-05 0.000223204 0.000179347)
(-9.15408e-06 0.000196441 0.000203013)
(-4.37741e-06 0.000167537 0.000212803)
(6.66885e-06 0.000129916 0.000210515)
(-2.95508e-06 9.48496e-05 0.000200021)
(3.54096e-05 0.000111363 0.000327673)
(5.4101e-05 0.00014563 0.000498183)
(5.99301e-05 8.94444e-05 0.000516521)
(6.43787e-05 4.01744e-05 0.000535019)
(5.449e-05 -8.78388e-06 0.000516328)
(3.04098e-05 -5.46082e-05 0.000492964)
(2.00918e-05 -8.27737e-05 0.000481646)
(1.03441e-05 -0.000119005 0.000476894)
(-5.83917e-06 -0.000158077 0.000484859)
(-8.18817e-06 -0.000147625 0.000574473)
(8.49977e-06 -9.51933e-05 0.000574284)
(2.35762e-05 -3.93448e-05 0.000582686)
(4.39586e-05 8.21912e-06 0.000584721)
(5.75596e-05 6.20228e-05 0.000586802)
(7.29831e-05 0.0001083 0.000565636)
(7.35967e-05 0.000162842 0.000544016)
(5.56893e-05 0.000105838 0.000336342)
(3.79804e-06 9.31501e-05 0.000213551)
(2.30981e-05 0.000126174 0.000233949)
(2.25852e-05 0.000166376 0.000234331)
(1.447e-05 0.000195007 0.000218158)
(9.38412e-06 0.000216355 0.000198333)
(3.12557e-06 0.000231995 0.00017448)
(3.0017e-06 0.000241423 0.000151762)
(-2.54684e-07 0.000248991 0.00013334)
(-2.34527e-07 0.000247282 0.000109149)
(-1.11359e-06 0.000240915 8.37206e-05)
(3.06275e-06 0.000229885 5.71944e-05)
(5.03272e-06 0.000209492 3.78165e-05)
(8.25779e-06 0.000181095 2.25177e-05)
(1.01719e-05 0.000145652 1.34667e-05)
(1.18018e-05 0.000184147 1.56036e-05)
(1.2307e-06 0.000178665 2.28944e-05)
(3.06078e-05 0.000238436 3.14237e-05)
(1.93306e-05 0.000188033 2.36194e-05)
(2.04879e-05 0.000148815 1.20901e-05)
(2.35184e-05 0.000186358 1.75479e-05)
(1.22025e-05 0.000178107 2.32288e-05)
(4.61436e-06 0.0001509 1.06844e-05)
(-2.97648e-06 0.000173285 1.57364e-05)
(-1.17647e-05 0.000173502 1.28048e-05)
(-1.75724e-05 0.000168122 9.58497e-06)
(-2.08366e-05 0.000150213 -5.58064e-07)
(-2.42142e-05 0.000164934 8.86084e-06)
(-6.82113e-06 0.000106807 7.5479e-06)
(-1.08503e-05 0.000130921 1.44669e-05)
(-5.97805e-06 0.000134537 1.59204e-05)
(1.44526e-06 0.000136887 1.64304e-05)
(4.41775e-06 0.000121503 1.40091e-05)
(7.81938e-06 0.000160822 1.85637e-05)
(2.44886e-06 0.000199762 2.97629e-05)
(-1.25211e-05 0.000207607 3.52201e-05)
(-3.62407e-06 0.000179663 2.42237e-05)
(-1.62054e-05 0.000180447 2.74449e-05)
(-2.5454e-05 0.00021459 2.67987e-05)
(-4.67011e-05 0.000258109 5.39667e-05)
(-3.5134e-05 0.000184667 2.13822e-05)
(-4.38686e-05 0.000166016 2.49158e-05)
(-4.68365e-05 0.0001822 3.57868e-05)
(-1.42425e-05 0.000107645 1.81898e-05)
(-1.44469e-05 0.000136915 2.19615e-05)
(-2.36571e-05 0.000172439 3.71215e-05)
(-3.03605e-05 0.000191072 5.32435e-05)
(-3.28379e-05 0.00020701 7.43149e-05)
(-3.63053e-05 0.000222468 9.46158e-05)
(-3.53106e-05 0.00022948 0.000116072)
(-3.45475e-05 0.000230003 0.000133325)
(-2.82266e-05 0.000222682 0.000147173)
(-2.36322e-05 0.000204089 0.000170831)
(-1.59214e-05 0.000168011 0.000179991)
(-2.29796e-05 0.000135383 0.000185025)
(1.99733e-06 0.00015679 0.000291605)
(1.00761e-05 0.000186529 0.00031159)
(2.32916e-05 0.000124895 0.000303493)
(2.44744e-05 0.000156211 0.000426314)
(8.14582e-06 0.00021672 0.000462004)
(1.23249e-05 0.000154227 0.000386955)
(-1.6132e-05 0.000199639 0.00037317)
(-1.0291e-05 0.000146067 0.000233458)
(-2.31888e-05 0.000123674 0.000156213)
(-1.76275e-05 0.000140286 0.000143108)
(-2.56773e-05 0.000160691 0.000126813)
(-4.04663e-05 0.000187543 0.000117162)
(-4.11237e-05 0.000198331 0.000108496)
(-4.03517e-05 0.000196791 9.01817e-05)
(-3.73909e-05 0.000184974 7.24596e-05)
(-3.61437e-05 0.000163212 5.04212e-05)
(-2.11119e-05 0.000132573 3.45749e-05)
(-6.21431e-05 0.000201085 4.64006e-05)
(-5.90172e-05 0.000174889 4.55311e-05)
(-6.01167e-05 0.000175362 5.77913e-05)
(-2.64784e-05 0.000114821 4.12995e-05)
(-3.29982e-05 0.00012993 5.75006e-05)
(-3.28533e-05 0.000137155 7.40487e-05)
(-3.14414e-05 0.000136409 8.76875e-05)
(-3.77358e-05 0.000133185 0.000102324)
(-5.22972e-05 0.00017404 0.000146903)
(-5.34112e-05 0.000217729 0.000186831)
(-4.18448e-05 0.000185353 0.000188608)
(-2.37618e-05 0.000146412 0.000211208)
(-3.27775e-05 0.000191751 0.000283898)
(-6.60112e-05 0.000234455 0.000267529)
(-8.4305e-05 0.000264287 0.000251273)
(-5.80978e-05 0.000189295 0.000202048)
(-7.68193e-05 0.000220377 0.00016931)
(-9.00782e-05 0.000235849 0.000147237)
(-9.46724e-05 0.000239149 0.00012121)
(-8.8708e-05 0.000228757 9.4181e-05)
(-7.62359e-05 0.00022085 6.64261e-05)
(-6.36528e-05 0.000206973 4.9069e-05)
(-5.48753e-05 0.000201426 4.25616e-05)
(-4.32976e-05 0.000181806 3.17205e-05)
(-3.38684e-05 0.000151926 2.01842e-05)
(-1.39661e-05 0.000109499 7.73143e-06)
(-3.28033e-05 0.000153933 -7.58125e-06)
(-3.64691e-05 0.000165325 4.17375e-06)
(-4.30725e-05 0.000144594 -1.45385e-05)
(-4.64011e-05 0.000144272 2.19568e-06)
(-1.94113e-05 0.000101525 7.09655e-06)
(-2.84283e-05 0.000124629 1.9487e-05)
(-3.52703e-05 0.000138052 2.82456e-05)
(-3.90409e-05 0.000148916 4.33864e-05)
(-5.65531e-05 0.000168507 6.08505e-05)
(-6.3285e-05 0.000170698 7.64383e-05)
(-5.6372e-05 0.000156221 9.35308e-05)
(-4.96667e-05 0.000149935 0.000117444)
(-4.18193e-05 0.00014093 0.000142239)
(-3.18332e-05 0.000126129 0.000161016)
(-3.55091e-05 0.000108319 0.000180814)
(-4.22341e-05 0.000160762 0.000218246)
(-1.65579e-05 0.000121201 0.000233685)
(-1.90035e-05 9.74461e-05 0.000255216)
(-8.1341e-06 0.000145183 0.000305965)
(1.5023e-05 9.3873e-05 0.00032684)
(4.78262e-06 6.23885e-05 0.00033289)
(3.05743e-05 9.89038e-05 0.000394558)
(3.8913e-05 5.14083e-05 0.00039238)
(4.76553e-05 0.000108873 0.000453207)
(5.50545e-05 5.45441e-05 0.000466439)
(4.81236e-05 1.86122e-06 0.000457045)
(1.27363e-05 -2.64672e-05 0.000437489)
(4.81444e-05 -0.000106444 0.000752492)
(5.77449e-05 -0.000102065 0.000736103)
(3.88384e-05 -0.000148288 0.000722052)
(2.16364e-05 -0.000201316 0.000723717)
(-7.7478e-07 -0.000257036 0.000730807)
(-1.20878e-05 -0.000283229 0.000745627)
(-2.41752e-05 -0.000305431 0.000695546)
(-2.8348e-06 -0.000198095 0.000432369)
(-1.39844e-05 -0.000118879 0.000560693)
(-5.39023e-07 -6.40852e-05 0.000563423)
(1.25965e-05 -5.93241e-06 0.000571283)
(3.62435e-05 4.27152e-05 0.000574168)
(5.42073e-05 9.55559e-05 0.000575463)
(7.54496e-05 0.000141973 0.000553758)
(7.94496e-05 0.000184336 0.000547442)
(6.17522e-05 0.00013744 0.000335971)
(1.54411e-05 0.000102591 0.000225442)
(3.11141e-05 0.000137169 0.000242661)
(3.02627e-05 0.000162191 0.000236594)
(1.81264e-05 0.00018826 0.000215112)
(1.31115e-05 0.000210027 0.000187704)
(5.70637e-06 0.000224213 0.000164267)
(6.2164e-06 0.000233763 0.000138943)
(5.19271e-06 0.000239345 0.000121428)
(6.90964e-06 0.000238237 9.54385e-05)
(1.06311e-05 0.000228408 7.10657e-05)
(1.6026e-05 0.000213977 4.94503e-05)
(1.89219e-05 0.000190933 3.15473e-05)
(2.20648e-05 0.000157554 1.69208e-05)
(1.38494e-05 0.000117171 1.31139e-05)
(1.80618e-05 0.000148205 6.05374e-06)
(3.59262e-05 0.000192671 2.51788e-05)
(3.43408e-05 0.000160395 8.56586e-06)
(2.34931e-05 0.000119073 7.36895e-06)
(2.86965e-05 0.000144366 2.78159e-06)
(4.66597e-05 0.000170739 1.07042e-05)
(3.71376e-05 0.000137874 2.39124e-06)
(4.08207e-05 0.000158589 -2.04304e-06)
(3.15675e-05 0.000170414 1.87561e-05)
(2.16662e-05 0.0001381 3.76541e-06)
(1.66161e-05 0.000165592 1.28531e-05)
(5.86719e-06 0.000177902 1.48902e-05)
(-4.4136e-06 0.000179274 1.1128e-05)
(-1.59062e-05 0.000171484 6.77926e-06)
(-2.54468e-05 0.000156454 -3.6794e-06)
(-3.16282e-05 0.000132233 -5.17955e-06)
(-4.00396e-05 0.000155354 2.95435e-06)
(-1.28379e-05 0.000103378 -2.82163e-06)
(-1.08465e-05 0.000131519 -2.49051e-07)
(-3.50866e-06 0.000143473 8.19824e-06)
(4.22761e-06 0.000149978 1.22245e-05)
(1.23852e-05 0.000150073 1.5597e-05)
(2.0828e-05 0.000140081 1.3866e-05)
(2.2426e-05 0.000118031 9.76695e-06)
(3.48752e-05 0.000165224 1.45602e-05)
(4.38645e-05 0.000226452 2.26501e-05)
(4.65491e-05 0.000580525 0.000152423)
(6.00024e-05 0.000721925 0.000237763)
(3.38153e-05 0.000876011 0.000360493)
(2.59147e-05 0.00100458 0.000466252)
(-1.28546e-05 0.00113883 0.000588468)
(-3.7666e-05 0.00127034 0.00072577)
(-0.000106137 0.00140591 0.000871418)
(-0.00013257 0.00153482 0.00102128)
(-0.000180332 0.00162392 0.00120827)
(-0.000182339 0.00205777 0.00168357)
(4.79267e-05 0.00199248 0.00208347)
(-1.13375e-05 0.0020432 0.0023353)
(-2.07107e-05 0.00203256 0.0026468)
(-6.96752e-05 0.00202588 0.00292366)
(-6.57306e-05 0.00191573 0.0032664)
(-0.000107249 0.00178823 0.00357128)
(-9.38828e-05 0.00171789 0.0039037)
(-9.89497e-05 0.00155638 0.00416906)
(-9.83645e-05 0.00141904 0.00443944)
(-0.000138508 0.00117383 0.0046384)
(-0.000195887 0.000950129 0.00482312)
(-0.000265532 0.000611271 0.00493453)
(-0.000331255 0.000306435 0.00506618)
(1.20671e-06 2.91492e-05 0.000535806)
(2.68757e-05 7.89533e-05 0.000541136)
(5.06385e-05 0.000126021 0.00054014)
(7.77293e-05 0.000167944 0.000524146)
(9.52822e-05 0.000188337 0.000502327)
(6.85525e-05 0.000154502 0.000308905)
(1.04652e-05 9.18078e-05 0.000205246)
(4.2639e-05 0.00013223 0.000226692)
(4.0941e-05 0.000164856 0.000231261)
(3.44157e-05 0.000185729 0.000205715)
(3.09084e-05 0.000205509 0.000178718)
(2.34885e-05 0.000219237 0.000155399)
(2.27608e-05 0.000225744 0.000130127)
(2.13386e-05 0.000228458 0.000112917)
(2.37459e-05 0.000225943 8.90212e-05)
(2.54147e-05 0.000212275 6.41762e-05)
(2.79099e-05 0.000193623 4.15765e-05)
(3.0046e-05 0.000163284 2.42276e-05)
(2.33576e-05 0.000127558 1.6044e-05)
(3.22793e-05 0.000162823 1.35001e-05)
(2.58162e-05 0.000170918 2.60606e-05)
(5.68055e-05 0.000212409 2.61263e-05)
(4.60611e-05 0.000162218 1.55947e-05)
(3.26261e-05 0.000126326 7.02026e-06)
(4.30787e-05 0.000153708 -5.5284e-06)
(3.58025e-05 0.000164185 1.44468e-05)
(6.90879e-05 0.000196063 7.65207e-06)
(5.12448e-05 0.000147301 6.22183e-06)
(6.50638e-05 0.000172444 -9.54137e-06)
(5.14135e-05 0.000176069 6.52346e-06)
(9.85732e-05 0.000199218 -3.45203e-06)
(6.04618e-05 0.000137574 7.16539e-06)
(6.40464e-05 0.000153238 -7.55829e-06)
(4.9812e-05 0.000170337 2.52411e-05)
(3.50076e-05 0.000140511 6.91588e-06)
(2.75635e-05 0.000183353 2.67599e-05)
(1.37889e-05 0.000176011 3.87625e-05)
(3.26508e-06 0.000132307 2.03528e-05)
(-2.7968e-07 0.000156649 2.6401e-05)
(-6.83723e-06 0.000159646 2.24714e-05)
(-1.46776e-05 0.000155378 1.42697e-05)
(-2.67104e-05 0.000140306 6.75128e-06)
(-3.26686e-05 0.000122788 -2.13048e-06)
(-4.16057e-05 0.000147771 7.09512e-06)
(-1.28332e-05 0.000100113 1.94375e-06)
(-1.365e-05 0.000126628 8.54419e-06)
(-1.48702e-06 0.000137864 1.49388e-05)
(6.27049e-06 0.000143178 2.0447e-05)
(1.38399e-05 0.000140517 2.255e-05)
(1.82445e-05 0.00012694 1.98285e-05)
(2.75284e-05 0.000184097 3.13345e-05)
(3.77057e-05 0.000162654 2.25158e-05)
(3.75027e-05 0.000127089 1.60519e-05)
(6.44019e-05 0.00018693 8.83341e-06)
(9.11643e-05 0.000468852 0.000129454)
(0.000136665 0.000611395 0.000188401)
(0.000113707 0.000766585 0.000300595)
(0.000112516 0.000909344 0.000450239)
(8.81243e-05 0.0010548 0.000621217)
(5.36299e-05 0.00116944 0.000765919)
(3.23743e-05 0.00133853 0.000974573)
(-1.01258e-06 0.00147398 0.00113556)
(-3.31921e-05 0.00165043 0.00132501)
(-8.10315e-05 0.00179677 0.00149136)
(-0.000111018 0.00194703 0.00164905)
(9.55122e-05 0.00187135 0.00157492)
(6.60399e-05 0.00197057 0.00180493)
(0.00017195 0.00173344 0.00167818)
(0.000149448 0.00179813 0.00198354)
(9.68693e-05 0.00185925 0.00224257)
(8.35384e-05 0.00190665 0.00255516)
(3.26868e-05 0.00192428 0.00283182)
(2.64379e-05 0.0018999 0.00315355)
(-1.29948e-05 0.00184779 0.00342124)
(-2.92875e-05 0.00180747 0.00370293)
(-7.98704e-05 0.00170825 0.00393806)
(-0.000135272 0.00160206 0.00419512)
(-0.00022667 0.00140348 0.00437649)
(-0.000320191 0.00118114 0.00456606)
(-0.000419455 0.000875569 0.00467372)
(-0.000485236 0.000556507 0.0048231)
(-2.87364e-06 0.000183576 0.00043005)
(4.05178e-05 0.000211382 0.00042331)
(8.21926e-05 0.000233269 0.000414002)
(0.000111213 0.000223797 0.000364491)
(0.000141233 0.00024579 0.000380787)
(8.24346e-05 0.000162824 0.000238547)
(2.86393e-05 0.000102032 0.000158716)
(4.20455e-05 0.000127567 0.000152695)
(3.93384e-05 0.000136219 0.00013221)
(3.50718e-05 0.000141241 0.00011402)
(3.24433e-05 0.000141062 9.46511e-05)
(2.91217e-05 0.000137681 7.71401e-05)
(2.80437e-05 0.000132417 5.80753e-05)
(2.80499e-05 0.000119719 3.98818e-05)
(4.78888e-05 0.000155617 3.33115e-05)
(4.91982e-05 0.000184127 5.46252e-05)
(4.31139e-05 0.00014827 2.44345e-05)
(3.89385e-05 0.000158247 1.73345e-05)
(3.58316e-05 0.00016998 3.05161e-05)
(6.59097e-05 0.000204687 3.12288e-05)
(5.28728e-05 0.000155883 1.71331e-05)
(3.98799e-05 0.000122664 7.54208e-06)
(5.7376e-05 0.000150822 -1.00272e-06)
(4.93462e-05 0.0001618 1.46167e-05)
(8.65991e-05 0.000182284 7.29258e-06)
(5.71546e-05 0.000128397 2.43525e-06)
(4.32966e-05 9.89518e-05 -1.27047e-06)
(6.20553e-05 0.000112312 -1.82921e-05)
(7.83276e-05 0.000127773 -5.30491e-06)
(8.88923e-05 0.000146669 -1.94483e-05)
(7.50764e-05 0.000169122 1.0567e-05)
(0.000122444 0.000176399 2.67632e-06)
(8.13534e-05 0.000123681 1.61815e-05)
(7.70364e-05 0.000127573 8.51311e-06)
(5.94047e-05 0.000155522 4.75288e-05)
(4.08479e-05 0.000120698 1.19611e-05)
(2.97412e-05 0.000170328 4.45307e-05)
(8.75478e-06 0.000172904 6.55417e-05)
(-5.68598e-06 0.000115094 3.09832e-05)
(-8.04151e-06 0.000153193 4.23251e-05)
(-1.34255e-05 0.000167954 4.35006e-05)
(-1.99897e-05 0.000173592 3.67454e-05)
(-2.66443e-05 0.000173361 2.58489e-05)
(-3.66205e-05 0.000156994 1.54921e-05)
(-4.50289e-05 0.000138808 6.80399e-06)
(-5.28781e-05 0.000122158 4.25829e-06)
(-4.65266e-05 8.73955e-05 3.08554e-06)
(-5.67516e-05 0.00010609 8.16958e-06)
(-3.09512e-05 7.77779e-05 5.2616e-06)
(-3.43527e-05 0.000113643 -8.27366e-07)
(-2.98114e-05 0.000125073 1.16978e-05)
(-1.76426e-05 0.000146497 2.1947e-05)
(-4.75593e-06 0.000160209 3.20011e-05)
(3.75403e-06 0.000161718 4.32103e-05)
(9.93993e-06 0.0001578 4.95746e-05)
(1.26259e-05 0.000139487 4.73933e-05)
(2.13143e-05 0.000124252 3.92715e-05)
(3.8438e-05 0.000193951 5.38434e-05)
(5.04387e-05 0.000157214 4.15856e-05)
(4.94819e-05 0.000118857 2.95956e-05)
(8.85354e-05 0.000180609 2.33886e-05)
(0.000122716 0.000428537 0.000203281)
(0.000186623 0.000565322 0.000265596)
(0.000221505 0.000700291 0.000366081)
(0.000185661 0.00085677 0.000536348)
(0.000186727 0.000980336 0.000718813)
(0.000121961 0.00111447 0.00093328)
(0.000127331 0.00125737 0.00112586)
(9.80078e-05 0.00139225 0.00135958)
(0.000181499 0.00162073 0.00194857)
(0.000245846 0.00150927 0.00211518)
(0.000197093 0.00163488 0.00240426)
(0.000125219 0.00172493 0.00275823)
(3.92061e-05 0.00185369 0.00303401)
(-4.08398e-05 0.00191859 0.00337747)
(8.87351e-05 0.00221767 0.00331649)
(-0.000100512 0.00204682 0.00402345)
(-0.000228878 0.00216223 0.00435676)
(-0.000380957 0.00218436 0.00479918)
(-0.000505027 0.00255974 0.00471929)
(-0.00090466 0.00270857 0.00524581)
(-9.71893e-05 0.000220353 0.000233983)
(-4.09545e-05 0.000185841 0.000197378)
(-7.78436e-05 0.000353715 0.000385691)
(1.77997e-05 0.000374539 0.000377863)
(7.09155e-05 0.00034082 0.000342527)
(9.80567e-05 0.00029895 0.000313682)
(0.000123073 0.000270098 0.000263047)
(0.000133842 0.000234312 0.000221227)
(0.000134672 0.000206878 0.000176476)
(0.000123718 0.000180052 0.000143625)
(0.000112493 0.000153637 0.000108822)
(9.68879e-05 0.000120657 7.38491e-05)
(9.7204e-05 0.000142254 5.92343e-05)
(0.000106627 0.000167471 7.1192e-05)
(9.21294e-05 0.000138936 3.88414e-05)
(7.71234e-05 0.0001102 2.15646e-05)
(7.13e-05 0.000123657 1.44609e-05)
(6.87487e-05 0.000136813 2.4614e-05)
(6.63778e-05 0.00013831 2.59877e-06)
(6.00137e-05 0.000149217 1.75837e-05)
(9.88974e-05 0.000172581 1.39726e-05)
(6.59251e-05 0.00012041 8.35706e-06)
(9.08245e-05 0.000143713 -1.54341e-05)
(8.72458e-05 0.000160064 9.66608e-06)
(6.92671e-05 0.000114218 -5.52656e-06)
(9.33937e-05 0.000126502 -3.11759e-06)
(0.000101206 0.000128553 -1.95792e-05)
(9.36781e-05 0.000149099 5.5741e-06)
(0.000131345 0.000145707 -7.60999e-06)
(9.31671e-05 0.000107619 7.83e-06)
(0.000108768 0.000116048 -1.1827e-05)
(9.45111e-05 0.000139755 2.96315e-05)
(0.000145764 0.000141315 3.929e-05)
(0.000104048 0.000130152 3.20381e-05)
(8.04846e-05 0.000164439 0.000122237)
(-2.51434e-06 0.000105569 0.000125946)
(-2.59642e-05 9.32654e-05 0.00018048)
(-7.92689e-05 7.08327e-05 0.000151917)
(-6.33392e-05 0.000104915 0.000143494)
(-8.48384e-05 7.80429e-05 0.000225485)
(-0.000116622 1.06914e-05 0.00016593)
(-9.09613e-05 0.000124385 0.000147837)
(-9.0929e-05 0.000116769 0.000142146)
(-7.99244e-05 8.91667e-05 0.000126857)
(-6.52833e-05 4.03214e-05 6.2577e-05)
(-5.18769e-05 8.06719e-05 4.50311e-05)
(-4.5042e-05 7.89168e-05 2.79991e-05)
(-5.57058e-05 0.000114078 4.83658e-05)
(-2.49197e-05 8.02658e-05 3.54909e-05)
(-2.1857e-05 9.16672e-05 4.25792e-05)
(-1.59036e-05 7.7878e-05 5.1534e-05)
(-3.96276e-05 0.00015661 9.32384e-05)
(-1.52173e-05 0.000157252 0.000102534)
(-1.09546e-05 0.000134968 0.000112876)
(1.03395e-05 0.000108052 0.0001025)
(-0.000219018 0.000159146 0.000463782)
(-0.000206496 0.000355744 0.000511047)
(-0.0002012 0.000505695 0.000801872)
(-0.000203806 0.000663205 0.00103178)
(-0.000240845 0.000805638 0.00135218)
(-0.000237133 0.000897933 0.00152048)
(-0.000300695 0.00106035 0.00180676)
(-0.000293922 0.00115762 0.00203591)
(-0.000328238 0.00116646 0.00228642)
(-0.000137494 0.00146739 0.00203701)
(-1.01049e-05 0.00134833 0.00215102)
(0.00013818 0.00133034 0.00178408)
(0.000297778 0.00126792 0.00149687)
(0.000266769 0.00140925 0.00175633)
(0.000376165 0.00121023 0.00146997)
(0.00032128 0.00134841 0.00185856)
(0.000270528 0.00147491 0.00219295)
(0.000178988 0.00158977 0.0025832)
(9.46779e-05 0.00172947 0.00287399)
(2.40244e-06 0.00187114 0.00320949)
(2.61149e-05 0.00182447 0.00321128)
(-1.51381e-05 0.00199611 0.0036055)
(-0.000156867 0.00179555 0.00357072)
(-0.000283572 0.00186442 0.00403512)
(-0.000413148 0.00199585 0.00435402)
(-0.000603003 0.00206382 0.00475821)
(-0.000798751 0.00192598 0.00488076)
(-0.00093179 0.00237163 0.00481663)
(-6.60984e-05 0.000516066 0.000548489)
(1.44577e-05 0.00043647 0.000417053)
(5.82262e-05 0.000399937 0.000400341)
(9.87141e-05 0.000349291 0.000321917)
(0.00012032 0.000296876 0.000264422)
(0.000126696 0.000257157 0.000221743)
(0.000137601 0.000232055 0.000194972)
(0.000127837 0.000193013 0.000152388)
(0.000115889 0.000151217 0.000109033)
(0.000124178 0.000178495 0.000133948)
(0.000152636 0.000193144 0.000145839)
(0.00012721 0.000150243 8.1538e-05)
(0.000106012 0.000115774 4.78544e-05)
(0.000105016 0.000138325 3.90633e-05)
(0.000107548 0.000155084 5.10947e-05)
(9.3841e-05 0.000115808 1.40196e-05)
(9.08277e-05 0.000126711 3.2609e-06)
(8.88047e-05 0.000144519 1.43769e-05)
(0.00011481 0.000141646 1.14644e-05)
(8.43279e-05 9.93777e-05 7.40333e-06)
(0.000110269 0.0001121 -8.95314e-06)
(0.000103576 0.000125478 9.40043e-06)
(0.000142029 0.000125541 7.98447e-06)
(0.000138843 0.000121229 -9.53652e-06)
(0.000136339 0.000146854 2.09448e-05)
(0.000108451 0.000107265 7.89366e-06)
(0.000137798 0.000110837 2.31036e-05)
(0.000123329 0.000109957 1.25701e-05)
(0.000119569 0.000142221 6.774e-05)
(0.000183092 0.000142416 8.60483e-05)
(7.63439e-05 0.000124003 9.71999e-05)
(4.04114e-05 0.000117477 0.000198867)
(-2.45812e-05 1.75477e-05 0.000357354)
(-7.4965e-05 6.14674e-05 0.000519396)
(-0.000291208 -0.000198786 0.000905247)
(-0.00037754 -0.000430595 0.000907475)
(-0.000399583 -0.00128649 0.00285082)
(-0.000393744 -0.00164998 0.00324828)
(-0.000515406 -0.00185971 0.0038476)
(-0.000514359 -0.00189007 0.0037514)
(-0.000381771 -0.0013293 0.00270015)
(-0.000323187 -0.00108704 0.00217294)
(-0.000296146 -0.000932885 0.00172196)
(-0.00021387 -0.000739423 0.00137112)
(-0.000265188 -0.000388932 0.000835999)
(-0.000406373 -0.000460635 0.00107574)
(-0.000303322 -0.000280533 0.000548413)
(-0.000166702 -4.1672e-05 0.000180503)
(-0.000113157 1.66346e-05 8.98579e-05)
(-9.21351e-05 4.32882e-05 5.59215e-05)
(-7.01494e-05 4.60184e-05 3.28657e-05)
(-8.32877e-05 7.6153e-05 5.53253e-05)
(-6.00958e-05 4.84145e-05 5.37766e-05)
(-7.73018e-05 6.80006e-05 7.08079e-05)
(-8.6142e-05 5.7657e-05 0.00010107)
(-7.21283e-05 8.22639e-05 7.57744e-05)
(-4.84722e-05 4.44146e-05 6.84166e-05)
(-6.48953e-05 3.41555e-05 6.69258e-05)
(-0.000122731 -1.69876e-05 0.000163282)
(-0.000110578 -8.14876e-05 0.000225152)
(-0.000177411 -0.00014275 0.000305626)
(-0.000195333 -0.000355348 0.000665738)
(-0.000223272 -0.000431188 0.000858439)
(-0.000309659 -0.000239689 0.000527651)
(-0.00039212 -0.000346132 0.000938969)
(-0.000250018 -0.000170389 0.000673748)
(-0.000224787 -0.000361846 0.00101544)
(-0.000146508 -0.000339852 0.000814307)
(-0.000379281 -0.000541988 0.00127099)
(-0.000274004 -0.000593417 0.00136137)
(-0.000182251 -0.000492092 0.000910936)
(-0.000154901 -8.52373e-05 0.000343943)
(-0.000290785 -0.000313026 0.000592859)
(-0.000333109 -0.000664435 0.00119766)
(-0.00047491 -0.000553056 0.00138708)
(-0.000401491 -0.000453636 0.00116655)
(-0.000435836 -0.000169004 0.000849211)
(-0.000494916 -0.000325947 0.00106729)
(-0.000577639 -0.000320408 0.00114104)
(-0.000657141 -0.000612585 0.00181321)
(-0.000651075 -0.000368629 0.00131131)
(-0.000685873 -0.000202755 0.00120518)
(-0.000454696 -1.15048e-05 0.00152509)
(-0.000356806 0.000284169 0.00152139)
(-0.000242439 0.000447725 0.00167158)
(-0.000206038 0.000565837 0.00189224)
(-0.000155729 0.000683618 0.00202354)
(-0.000233271 0.000741561 0.0023422)
(-0.000230136 0.000796895 0.00259778)
(-0.000290188 0.000839027 0.00286904)
(-0.000265729 0.000683468 0.00381984)
(-0.000398807 0.000559195 0.00360801)
(-0.000135573 0.000900046 0.00336202)
(-0.000394833 0.000430045 0.00370457)
(-0.000437487 0.000413169 0.00418208)
(-0.00052757 0.000269894 0.00480801)
(-0.000438318 0.000768647 0.00493303)
(-0.000527977 0.000982085 0.00588244)
(-0.000717197 0.00116342 0.00677103)
(-0.00105866 0.00116293 0.00778003)
(-0.00147797 0.00116949 0.00861647)
(-0.000160084 0.000432821 0.00041179)
(-0.0001037 0.000328131 0.000295923)
(-4.29688e-05 0.00024504 0.000215694)
(-9.37476e-05 0.000361595 0.000333621)
(-2.74415e-05 0.000402843 0.000322566)
(3.20933e-05 0.000337715 0.000300237)
(0.000125923 0.000403779 0.000328003)
(0.000125531 0.000307841 0.000244736)
(0.000121293 0.00022636 0.00018368)
(0.000106072 0.000160844 0.000131003)
(7.60803e-05 0.000161525 0.000135361)
(7.71817e-05 0.00022421 0.000204464)
(0.000158655 0.000258436 0.000244888)
(0.000124257 0.00016029 0.000139408)
(0.000102596 0.000123326 9.40222e-05)
(0.000127425 0.000148732 9.38097e-05)
(0.000138437 0.000160787 9.68175e-05)
(0.0001144 0.000107375 4.06695e-05)
(0.000119162 0.000127714 2.92182e-05)
(0.000121335 0.000138957 4.19771e-05)
(0.000104317 9.67749e-05 7.79477e-06)
(0.000126603 0.000105614 2.40904e-05)
(0.000120517 0.000106471 2.25889e-05)
(0.000123582 0.00011553 3.44377e-05)
(0.000159502 0.000117531 3.66996e-05)
(0.000138389 0.000109392 2.2395e-05)
(0.000147185 0.000123196 5.58862e-05)
(0.000110181 8.88906e-05 3.10468e-05)
(0.000165638 0.000154199 7.79615e-05)
(0.000121477 0.00012051 8.86335e-05)
(0.000105994 0.000176394 0.000213981)
(-1.06448e-05 0.000108343 0.000366453)
(-0.000216612 -8.69876e-05 0.000847608)
(-0.000583533 -0.00026475 0.00154598)
(-0.000685163 -0.00156627 0.00432889)
(-0.000696725 -0.00236795 0.00532618)
(-0.000529091 -0.00340017 0.00669039)
(-0.000542206 -0.00325091 0.006496)
(-0.000503532 -0.00353741 0.00655358)
(-0.000540824 -0.00357728 0.00705472)
(-0.000581587 -0.00351412 0.00670365)
(-0.000500089 -0.00311861 0.00599997)
(-0.000508318 -0.00270604 0.00526711)
(-0.000552718 -0.00242739 0.00456774)
(-0.00043797 -0.00197638 0.00356841)
(-0.000425944 -0.00126757 0.00242263)
(-0.000332371 -0.000932142 0.00158007)
(-8.55616e-05 -0.000444801 0.000802598)
(-0.000199037 -0.000437975 0.00098611)
(-0.000231596 -0.000225176 0.000609467)
(-0.000143581 -0.000116811 0.000282702)
(-9.99592e-05 -0.000254607 0.000388273)
(-0.000195154 -0.000433814 0.000688613)
(-0.000347448 -0.000648024 0.00128606)
(-0.000466981 -0.00100361 0.00181055)
(-0.000260314 -0.000655284 0.00118065)
(-0.000346802 -0.000621356 0.00119113)
(-0.000529408 -0.000611897 0.00114663)
(-0.000571611 -0.00104051 0.00189739)
(-0.000618962 -0.000981092 0.0018405)
(-0.000748991 -0.0011186 0.00199696)
(-0.00102942 -0.00134687 0.00296256)
(-0.00123739 -0.00141875 0.00360349)
(-0.00154379 -0.00242528 0.00621736)
(-0.00146527 -0.00407955 0.00930525)
(-0.00161988 -0.00300323 0.00863139)
(-0.00169212 -0.00273294 0.00936788)
(-0.00172728 -0.00248856 0.00983872)
(-0.00178843 -0.00238793 0.0102779)
(-0.00204158 -0.00241523 0.0107132)
(-0.00232498 -0.00241402 0.0111273)
(-0.00275218 -0.00235923 0.0115646)
(-0.00304401 -0.00216657 0.0119942)
(-0.0033265 -0.00191705 0.0124976)
(-0.00337384 -0.00166768 0.0130557)
(-0.00340401 -0.00158292 0.0137237)
(-0.00326332 -0.00171399 0.0144425)
(-0.00315838 -0.00209496 0.0151592)
(-0.00292961 -0.00264896 0.01578)
(-0.000123756 0.000322294 0.000344655)
(-0.000156781 0.000414782 0.000465817)
(-0.000100657 0.000312178 0.000327076)
(-9.71825e-05 0.000232783 0.000280355)
(-5.8837e-05 0.000145464 0.000180958)
(-0.000116554 0.000170805 0.000244787)
(-7.39453e-05 0.000210938 0.000197426)
(1.11114e-05 0.00024728 0.000206313)
(-8.13699e-05 0.000201797 0.000254236)
(-3.29884e-05 0.000101659 0.000121856)
(-0.000110308 0.000134258 0.000207457)
(-1.6561e-05 0.000188598 0.000199007)
(6.79843e-05 0.000189252 0.000180041)
(0.000186439 0.00026137 0.000231923)
(0.000150765 0.000200916 0.000157815)
(0.000116605 0.000136591 8.9159e-05)