/*--------------------------------*- C++ -*----------------------------------*\
| =========                 |                                                 |
| \\      /  F ield         | OpenFOAM: The Open Source CFD Toolbox           |
|  \\    /   O peration     | Version:  5.0                                   |
|   \\  /    A nd           | Web:      www.OpenFOAM.org                      |
|    \\/     M anipulation  |                                                 |
\*---------------------------------------------------------------------------*/
FoamFile
{
    version     2.0;
    format      ascii;
    class       volVectorField;
    location    "60";
    object      URest;
}
// * * * * * * * * * * * * * * * * * * * * * * * * * * * * * * * * * * * * * //

dimensions      [0 1 -1 0 0 0 0];

internalField   nonuniform List<vector> 
36177
(
(0.0150821 -0.0105084 0.00291855)
(0.00471982 -0.00275413 0.000904531)
(0.00562987 -0.00289133 0.000719755)
(0.00713854 -0.00339393 0.00104818)
(0.0078153 -0.00328172 0.001422)
(0.00739332 -0.00273545 0.00145544)
(0.00565225 -0.00193469 0.0011981)
(0.00432021 -0.00230584 0.00122123)
(0.00356181 -0.00245456 0.000710303)
(0.00479615 -0.0030134 0.00072563)
(0.00558552 -0.00339785 0.000861532)
(0.00541088 -0.00327563 0.000749094)
(0.00429587 -0.0026487 0.000702065)
(0.0119664 -0.00665079 0.00194048)
(0.0202004 -0.00937719 0.00294703)
(0.0136959 -0.00721057 0.00243389)
(0.00503886 -0.00284244 0.00135253)
(0.00392106 -0.0015396 0.000338988)
(0.00539155 -0.00120223 0.000191365)
(0.00435534 -0.000109119 -0.000125871)
(0.00384561 0.000407991 -0.00068834)
(0.00194685 0.000478517 -0.000425393)
(0.00172455 0.00063464 -0.000487891)
(0.00136896 0.000497569 -0.000431749)
(0.000835846 0.000382574 -0.000277515)
(0.000681611 0.000346785 -0.000286572)
(0.000419019 0.000259465 -0.000227156)
(0.000304144 0.000217739 -0.000188752)
(0.00019369 0.000177853 -0.000151233)
(8.70463e-05 0.000103095 -5.6823e-05)
(6.08712e-05 6.00203e-05 3.11018e-05)
(2.41117e-05 -1.70979e-05 0.000137263)
(2.19163e-06 -3.20849e-05 9.06107e-05)
(1.3865e-05 1.47856e-05 6.18667e-05)
(6.09572e-05 7.85302e-05 -1.54213e-05)
(6.18056e-05 6.61695e-05 2.75065e-06)
(0.000103567 9.90891e-05 -5.15416e-05)
(0.000266829 0.000244086 -0.000176421)
(0.000389712 0.000270476 -0.000241325)
(0.000568768 0.000347192 -0.000314786)
(0.00072346 0.000453618 -0.00032264)
(0.00063386 0.000336208 -0.000221787)
(0.000721115 0.000331388 -0.00025375)
(0.000961418 0.000464952 -0.000224712)
(0.00134812 0.000564823 -0.000253322)
(0.00152775 0.000513311 -0.000408149)
(0.00240726 0.000877371 -0.000349775)
(0.00336763 0.00114896 -0.000406517)
(0.00391961 0.000196846 -0.000119346)
(0.00599199 -0.00209704 0.000728326)
(0.00372241 -0.00153247 0.000475318)
(0.00535515 -0.00334513 0.000929143)
(0.0109656 -0.00387821 0.000854493)
(0.0159963 -0.00533764 0.000341662)
(0.00635387 -0.00208117 0.000328472)
(0.00470502 -0.000648586 -0.000897807)
(0.00362344 -0.000100887 -0.00116624)
(0.00192745 0.000225799 -0.000668014)
(0.0016978 0.000364856 -0.000691801)
(0.00153647 0.00038476 -0.000628569)
(0.000966408 0.000352281 -0.000395066)
(0.000842536 0.000347712 -0.000404847)
(0.000493102 0.00029977 -0.000280834)
(0.000315989 0.000241897 -0.000254472)
(0.000215299 0.000206148 -0.000181313)
(0.000100786 0.000130083 -5.69644e-05)
(7.52836e-06 1.73961e-06 4.50391e-05)
(1.01404e-05 -4.70246e-05 0.000136443)
(2.19292e-05 -0.00012145 0.000266442)
(-1.07277e-05 -5.33052e-05 0.000376148)
(2.48007e-06 -2.16054e-05 0.000362815)
(1.05916e-05 1.03226e-05 0.000355339)
(2.21318e-05 3.57103e-05 0.000346086)
(2.60527e-05 6.67408e-05 0.000338187)
(3.32062e-05 9.88514e-05 0.000323844)
(2.48767e-05 0.000132739 0.000287425)
(2.17068e-05 0.000162613 0.000279166)
(8.55696e-06 0.000135973 0.000180845)
(-5.73376e-06 0.000105017 0.000106587)
(-3.71728e-07 0.000128165 0.00010605)
(-6.83835e-06 0.000148333 9.43818e-05)
(-8.67042e-06 0.000163506 7.84938e-05)
(-1.26311e-05 0.000175174 6.25015e-05)
(-1.17167e-05 0.000182382 4.46196e-05)
(-1.34547e-05 0.000184147 2.79642e-05)
(-9.02292e-06 0.000181778 1.30577e-05)
(-8.48367e-06 0.00017763 2.14227e-06)
(-3.88736e-06 0.000169596 -9.09728e-06)
(-1.01433e-06 0.000158001 -1.63014e-05)
(3.35643e-06 0.000141162 -1.97568e-05)
(6.43136e-06 0.000118515 -2.04133e-05)
(2.07058e-06 9.0544e-05 -1.54389e-05)
(6.45658e-06 0.000118898 -2.62044e-05)
(2.31082e-06 0.000124924 -1.77042e-05)
(-2.7386e-06 0.000144864 -1.03933e-05)
(8.35967e-06 9.14693e-05 -1.48774e-05)
(-1.61828e-06 0.000119214 -1.4462e-05)
(-4.7474e-06 0.000142659 -1.16455e-05)
(-1.01274e-05 0.000158782 -9.67919e-06)
(-1.21983e-05 0.000167284 -2.02871e-06)
(-1.60782e-05 0.000174389 7.75916e-06)
(-1.60622e-05 0.000176243 1.84371e-05)
(-1.95054e-05 0.000175668 3.1515e-05)
(-1.83311e-05 0.000171814 4.75268e-05)
(-1.79427e-05 0.000165391 6.51568e-05)
(-1.43362e-05 0.000150552 7.92016e-05)
(-1.19858e-05 0.000131838 9.00699e-05)
(-9.32262e-07 0.000107271 9.63768e-05)
(-4.70355e-06 8.60258e-05 9.62585e-05)
(2.45904e-06 0.000116143 0.000165093)
(1.45048e-05 0.000146835 0.000260367)
(1.88443e-05 0.000115811 0.000285231)
(2.52872e-05 8.38815e-05 0.000306317)
(2.18679e-05 5.25968e-05 0.00030545)
(1.5011e-05 1.79175e-05 0.000301985)
(8.17715e-06 -2.90443e-06 0.000304606)
(2.22315e-06 -2.68761e-05 0.000312237)
(-9.98978e-06 -5.18245e-05 0.000327979)
(-1.09692e-05 -4.8258e-05 0.000387675)
(7.19928e-07 -1.40159e-05 0.000376513)
(9.62133e-06 2.03514e-05 0.000369743)
(2.33147e-05 4.89433e-05 0.000358827)
(2.94916e-05 7.98827e-05 0.000347595)
(3.82609e-05 0.00010629 0.000322162)
(3.52069e-05 0.000136746 0.000293569)
(2.29746e-05 0.0001028 0.000169919)
(3.96398e-06 8.2215e-05 0.000107462)
(7.68564e-06 0.000106246 0.00011101)
(5.51276e-06 0.000129588 0.000104576)
(-6.56307e-07 0.000147474 8.81287e-05)
(-1.22636e-06 0.000162284 7.19216e-05)
(-4.94678e-06 0.000172928 5.60224e-05)
(-2.33607e-06 0.000179168 3.85726e-05)
(-3.09505e-06 0.000180891 2.31551e-05)
(1.17923e-06 0.000177147 8.33476e-06)
(2.70156e-06 0.000173731 -2.75773e-06)
(7.47418e-06 0.000163505 -1.22096e-05)
(9.19713e-06 0.00014949 -1.80877e-05)
(1.23974e-05 0.00013227 -2.3819e-05)
(1.15848e-05 0.000108963 -2.10305e-05)
(2.21048e-05 0.000138118 -3.41689e-05)
(1.22917e-05 0.00013803 -2.37773e-05)
(4.24361e-05 0.000185102 -3.64323e-05)
(3.00184e-05 0.000147798 -2.77308e-05)
(2.67571e-05 0.00011952 -2.37273e-05)
(3.77541e-05 0.000147938 -2.823e-05)
(2.47856e-05 0.000143474 -1.6611e-05)
(1.79642e-05 0.000124563 -2.2444e-05)
(1.06762e-05 0.000141495 -1.79456e-05)
(2.04251e-06 0.000143356 -1.71626e-05)
(-5.535e-06 0.000140452 -1.64163e-05)
(-1.06526e-05 0.000124843 -1.87759e-05)
(-1.54195e-05 0.000138228 -1.14876e-05)
(-3.10118e-06 8.96704e-05 -8.7624e-06)
(-4.98969e-06 0.000108209 -7.47785e-06)
(8.86776e-07 0.000110074 -9.46604e-06)
(8.0659e-06 0.000111384 -1.17117e-05)
(1.05632e-05 9.82425e-05 -1.33224e-05)
(1.85042e-05 0.000129376 -2.2359e-05)
(1.66166e-05 0.000156437 -2.4566e-05)
(2.55435e-06 0.000162676 -1.72228e-05)
(7.56408e-06 0.000142678 -1.73821e-05)
(-3.90987e-06 0.000143559 -1.18189e-05)
(-1.07272e-05 0.000167867 -1.48722e-05)
(-2.27469e-05 0.00020018 -7.2407e-06)
(-1.77216e-05 0.000147774 -2.19454e-05)
(-2.70985e-05 0.000130569 -1.08904e-05)
(-3.21595e-05 0.000142257 -2.53857e-07)
(-9.83579e-06 8.7923e-05 -7.70456e-06)
(-8.66325e-06 0.00010933 -1.05214e-05)
(-1.36081e-05 0.00013609 -9.72004e-06)
(-1.97027e-05 0.000151894 -6.50375e-06)
(-2.2272e-05 0.000159614 1.04718e-06)
(-2.65409e-05 0.000166481 1.16209e-05)
(-2.64796e-05 0.000167234 2.33459e-05)
(-2.8292e-05 0.000165669 3.63769e-05)
(-2.45852e-05 0.000161145 4.93574e-05)
(-2.31934e-05 0.000154577 6.43624e-05)
(-1.90875e-05 0.000134674 7.20778e-05)
(-1.5678e-05 0.000109455 8.13707e-05)
(-1.69191e-05 0.00014661 0.000136173)
(-1.26412e-05 0.000155926 0.000145363)
(-5.53758e-06 0.000123458 0.000146354)
(-9.51275e-06 0.000166411 0.000221837)
(-2.09289e-05 0.000203563 0.00022356)
(-2.08848e-05 0.000164965 0.000194689)
(-4.08473e-05 0.000194139 0.000175958)
(-2.74667e-05 0.000140192 0.000101316)
(-1.79919e-05 0.000103392 6.7775e-05)
(-1.74614e-05 0.000113598 5.57679e-05)
(-2.01086e-05 0.000123844 4.53445e-05)
(-3.26562e-05 0.000142395 3.37884e-05)
(-3.19029e-05 0.000150208 2.47374e-05)
(-3.11031e-05 0.000151519 1.52988e-05)
(-2.74135e-05 0.000144848 6.89469e-06)
(-2.60474e-05 0.00013108 -3.06553e-07)
(-1.34164e-05 0.000107815 -5.40997e-06)
(-4.30627e-05 0.000160516 -2.91294e-06)
(-4.32091e-05 0.000144466 3.18245e-07)
(-4.76262e-05 0.00014332 1.33926e-05)
(-2.07803e-05 9.6468e-05 3.31129e-06)
(-2.42062e-05 0.00010621 8.28138e-06)
(-2.51333e-05 0.000111002 1.58512e-05)
(-2.42984e-05 0.000109926 2.30808e-05)
(-2.56412e-05 0.000105021 3.48695e-05)
(-4.70476e-05 0.000149662 5.61716e-05)
(-4.93885e-05 0.000171387 7.33064e-05)
(-4.55112e-05 0.000154086 8.1487e-05)
(-3.58384e-05 0.000135122 9.19937e-05)
(-4.83633e-05 0.000185246 0.000135331)
(-6.83105e-05 0.000211445 0.000125491)
(-7.65065e-05 0.000225937 0.000105946)
(-6.05524e-05 0.000177066 9.33625e-05)
(-7.23278e-05 0.00019744 7.41556e-05)
(-7.79643e-05 0.000207063 6.03822e-05)
(-8.01212e-05 0.000207833 4.68974e-05)
(-7.21931e-05 0.000197648 3.34629e-05)
(-6.26686e-05 0.00018786 1.97799e-05)
(-4.98104e-05 0.000171416 9.65958e-06)
(-4.24072e-05 0.00016515 7.7983e-06)
(-3.18311e-05 0.000148766 4.59062e-07)
(-2.4582e-05 0.000125032 -3.28198e-06)
(-9.54968e-06 9.27549e-05 -8.81836e-06)
(-2.30352e-05 0.000130441 -2.24627e-05)
(-2.68543e-05 0.000137632 -1.45207e-05)
(-3.30642e-05 0.000124606 -2.75842e-05)
(-3.74583e-05 0.000121395 -1.25631e-05)
(-1.47657e-05 8.73778e-05 -8.23622e-06)
(-2.10492e-05 0.000105153 -3.27577e-06)
(-2.72814e-05 0.000116061 2.7832e-06)
(-3.14687e-05 0.000127631 1.01904e-05)
(-4.78606e-05 0.000145981 2.07984e-05)
(-5.39178e-05 0.000151648 2.79666e-05)
(-4.77605e-05 0.000141469 3.68891e-05)
(-4.55215e-05 0.000140153 4.87058e-05)
(-4.32952e-05 0.0001365 6.23128e-05)
(-3.8135e-05 0.000129852 7.32766e-05)
(-3.77387e-05 0.000117674 8.66661e-05)
(-5.36778e-05 0.000163948 0.000102819)
(-3.04541e-05 0.000133048 0.000112497)
(-2.88372e-05 0.000115443 0.00012612)
(-3.40683e-05 0.000153609 0.000147358)
(-1.30565e-05 0.000122201 0.000162787)
(-1.40281e-05 9.88826e-05 0.000176551)
(-9.67213e-06 0.000135031 0.000206099)
(6.24742e-06 9.67352e-05 0.000212822)
(7.52041e-06 0.000132111 0.000242535)
(1.43455e-05 9.87463e-05 0.000260457)
(1.97111e-05 5.82552e-05 0.000263389)
(2.5061e-06 3.44008e-05 0.000260886)
(1.13624e-05 2.06714e-05 0.000471312)
(1.7838e-05 1.57538e-05 0.000456579)
(7.7759e-06 -1.82249e-05 0.000468993)
(-1.32171e-06 -5.27848e-05 0.000484288)
(-1.72844e-05 -8.92427e-05 0.000503951)
(-2.34161e-05 -0.000108354 0.000541542)
(-3.34717e-05 -0.000128324 0.000511707)
(-7.97061e-06 -8.31629e-05 0.000308735)
(-1.11404e-05 -3.83996e-05 0.000379684)
(-9.45525e-07 -3.25654e-06 0.00037162)
(7.22908e-06 3.07991e-05 0.000365201)
(2.3327e-05 5.8856e-05 0.000355166)
(3.24884e-05 8.70194e-05 0.000343664)
(4.52929e-05 0.000112847 0.00031775)
(4.44015e-05 0.000136994 0.000297353)
(3.00786e-05 0.000108819 0.000171134)
(8.65202e-06 8.53181e-05 0.00010988)
(1.40335e-05 0.000110166 0.000111308)
(1.29929e-05 0.000127406 9.99947e-05)
(6.09219e-06 0.00014225 8.22784e-05)
(6.16995e-06 0.000154569 6.49571e-05)
(1.75591e-06 0.000163375 5.04429e-05)
(4.58194e-06 0.000168665 3.32509e-05)
(4.11929e-06 0.000169289 1.93258e-05)
(8.86105e-06 0.000164698 3.39459e-06)
(1.26385e-05 0.000157235 -6.70503e-06)
(1.69615e-05 0.000146873 -1.39448e-05)
(1.90836e-05 0.000133471 -2.03161e-05)
(2.2643e-05 0.000113705 -2.56466e-05)
(1.32091e-05 8.54585e-05 -1.84013e-05)
(2.62321e-05 0.00011209 -3.65594e-05)
(4.45804e-05 0.000145722 -3.69635e-05)
(4.2364e-05 0.000127547 -3.71295e-05)
(2.82847e-05 9.42076e-05 -2.40842e-05)
(4.12582e-05 0.000117078 -3.43356e-05)
(5.68027e-05 0.000138933 -3.31365e-05)
(4.14719e-05 0.000114256 -2.39107e-05)
(5.17203e-05 0.000132657 -3.40486e-05)
(4.17435e-05 0.000142372 -1.17713e-05)
(3.26765e-05 0.000116728 -2.10772e-05)
(2.97074e-05 0.000138895 -1.47346e-05)
(2.03367e-05 0.000150503 -1.44406e-05)
(1.03671e-05 0.000152956 -1.60906e-05)
(-1.85824e-06 0.000146807 -1.7694e-05)
(-1.17257e-05 0.000133823 -2.26448e-05)
(-2.01679e-05 0.0001127 -1.82088e-05)
(-2.87885e-05 0.000131055 -1.08459e-05)
(-7.56975e-06 8.94427e-05 -1.35343e-05)
(-4.03391e-06 0.000112757 -1.49079e-05)
(3.31982e-06 0.000123334 -1.09156e-05)
(1.15874e-05 0.000128105 -9.68111e-06)
(1.95648e-05 0.000127007 -8.69885e-06)
(2.72886e-05 0.000118045 -9.98541e-06)
(2.74758e-05 9.82716e-05 -1.19928e-05)
(4.34883e-05 0.000136089 -1.90336e-05)
(5.75205e-05 0.000185204 -2.94651e-05)
(9.47132e-05 0.000472996 3.12428e-06)
(0.000126439 0.000579905 2.42357e-05)
(0.000117677 0.000693838 6.72404e-05)
(0.000114867 0.000770598 0.000107513)
(7.94268e-05 0.000851326 0.00016397)
(6.46566e-05 0.000914064 0.000239172)
(5.13343e-06 0.00097078 0.000331741)
(-8.21005e-06 0.00102079 0.000437682)
(-5.83479e-05 0.0010465 0.0005643)
(-7.26226e-05 0.00114436 0.00102183)
(5.16508e-05 0.0010235 0.0012077)
(2.37001e-05 0.00100873 0.00137845)
(1.06405e-05 0.000959124 0.00158839)
(-1.10847e-05 0.000927847 0.00177221)
(-6.57236e-06 0.000843233 0.00200449)
(6.21732e-06 0.000767687 0.00217199)
(-4.58798e-06 0.000723377 0.00238766)
(4.52918e-06 0.000627007 0.00258372)
(-1.73636e-05 0.000531535 0.00280635)
(-2.28909e-05 0.000404624 0.00298204)
(-7.77785e-05 0.000270085 0.00316653)
(-0.00010808 0.000104356 0.00329731)
(-0.000173569 -7.10978e-05 0.00345308)
(-4.03009e-07 4.07512e-05 0.000347425)
(1.74437e-05 6.881e-05 0.000339613)
(3.01147e-05 9.20545e-05 0.000326994)
(4.63264e-05 0.000114429 0.000304022)
(5.18763e-05 0.000123612 0.000273058)
(3.41492e-05 0.000103817 0.000159192)
(5.78959e-06 7.01504e-05 9.76329e-05)
(2.15003e-05 9.72823e-05 0.00010069)
(2.05621e-05 0.000120179 9.30211e-05)
(1.68957e-05 0.000130918 7.34136e-05)
(1.71239e-05 0.00014086 5.69933e-05)
(1.32154e-05 0.00014905 4.28604e-05)
(1.54235e-05 0.000152867 2.70747e-05)
(1.52561e-05 0.000153368 1.584e-05)
(1.97423e-05 0.000148613 2.98285e-06)
(2.14622e-05 0.000139526 -6.20579e-06)
(2.39889e-05 0.000129332 -1.52163e-05)
(2.64122e-05 0.000112346 -2.09363e-05)
(1.95152e-05 8.84477e-05 -1.95178e-05)
(3.43748e-05 0.000117758 -3.49224e-05)
(3.0087e-05 0.000125743 -2.45641e-05)
(5.85052e-05 0.000157101 -3.92562e-05)
(4.98767e-05 0.000122746 -3.46465e-05)
(3.51677e-05 9.69486e-05 -2.95975e-05)
(5.30485e-05 0.000120265 -5.00687e-05)
(4.65591e-05 0.000129836 -2.96128e-05)
(7.88793e-05 0.000156846 -4.61882e-05)
(5.4802e-05 0.000119685 -2.65062e-05)
(7.49645e-05 0.0001403 -4.75508e-05)
(6.10742e-05 0.00014584 -2.86845e-05)
(0.000106746 0.000168157 -4.4507e-05)
(6.37762e-05 0.000115672 -1.78431e-05)
(7.35656e-05 0.000129805 -3.57929e-05)
(5.8813e-05 0.000143055 -2.58923e-06)
(4.51325e-05 0.00011985 -1.58918e-05)
(3.96714e-05 0.000150782 -2.84112e-06)
(2.53112e-05 0.000144257 1.29263e-05)
(1.53018e-05 0.000109606 -8.26323e-07)
(1.38757e-05 0.000129457 2.31351e-06)
(8.52347e-06 0.00013338 -1.26236e-06)
(5.63052e-07 0.000129902 -7.89654e-06)
(-1.09629e-05 0.000116994 -1.21396e-05)
(-1.88645e-05 0.000102626 -1.67934e-05)
(-2.7649e-05 0.000123301 -8.08545e-06)
(-5.65834e-06 8.50879e-05 -1.05896e-05)
(-4.11374e-06 0.000106363 -7.69282e-06)
(7.44775e-06 0.000116458 -4.23405e-06)
(1.5512e-05 0.00012109 -1.57332e-07)
(2.21297e-05 0.000117945 1.65391e-06)
(2.51612e-05 0.000105894 9.64683e-07)
(4.04904e-05 0.000154647 -2.78272e-06)
(4.46972e-05 0.000136694 -4.50556e-06)
(4.25698e-05 0.00010729 -5.48886e-06)
(7.40198e-05 0.000158771 -2.66134e-05)
(0.000127304 0.000395027 2.97737e-05)
(0.000185198 0.000510776 3.97208e-05)
(0.000188233 0.000628653 8.65196e-05)
(0.000220397 0.00072954 0.000154574)
(0.000217338 0.000825266 0.000234177)
(0.000180278 0.000873486 0.00031689)
(0.000148716 0.000962331 0.000449276)
(0.000113016 0.0010001 0.000556305)
(7.08805e-05 0.00106314 0.000694633)
(3.3798e-05 0.00108789 0.000817755)
(-1.89422e-05 0.00112176 0.000941719)
(0.000107191 0.00106555 0.000836939)
(7.50002e-05 0.0010612 0.00101267)
(0.000162658 0.000927507 0.000893298)
(0.000130667 0.000916689 0.0010948)
(0.000104355 0.000893826 0.00126591)
(8.08482e-05 0.000862161 0.0014912)
(6.49535e-05 0.000832947 0.00167586)
(5.27761e-05 0.000779607 0.00190674)
(6.02006e-05 0.00072833 0.00208945)
(3.69015e-05 0.00066792 0.00230804)
(2.92502e-05 0.000594148 0.00249825)
(-1.77862e-05 0.000503165 0.0027249)
(-4.47768e-05 0.000400937 0.00289372)
(-0.000116626 0.000266518 0.00308379)
(-0.000157302 0.000124572 0.00320845)
(-0.0002215 -5.78172e-05 0.00337233)
(-3.57946e-06 9.48752e-05 0.000273758)
(2.22335e-05 0.000109228 0.000258461)
(4.27371e-05 0.000118013 0.000241278)
(5.90343e-05 0.000117318 0.000199779)
(7.31434e-05 0.000137423 0.000192274)
(4.5087e-05 0.000100259 0.000107037)
(1.57241e-05 6.46232e-05 6.68388e-05)
(2.13801e-05 7.78522e-05 5.70785e-05)
(2.10688e-05 8.30856e-05 4.29212e-05)
(1.95515e-05 8.65955e-05 3.149e-05)
(2.03734e-05 8.78642e-05 1.9218e-05)
(1.9884e-05 8.74373e-05 9.92519e-06)
(2.09306e-05 8.40765e-05 8.4174e-07)
(1.92817e-05 7.63724e-05 -3.07507e-06)
(3.81489e-05 0.000102707 -1.9703e-05)
(4.12597e-05 0.00012048 -7.23719e-06)
(3.73579e-05 0.000100748 -2.05965e-05)
(3.65676e-05 0.000110008 -3.12914e-05)
(3.54323e-05 0.000120052 -2.26869e-05)
(6.10256e-05 0.000144729 -3.31631e-05)
(5.17577e-05 0.00011261 -3.30529e-05)
(3.87924e-05 9.01326e-05 -3.01903e-05)
(6.20335e-05 0.000112881 -4.81784e-05)
(5.61885e-05 0.00012408 -3.42111e-05)
(9.02586e-05 0.000140821 -4.75767e-05)
(6.0966e-05 9.87602e-05 -3.63305e-05)
(4.48837e-05 7.8975e-05 -2.58104e-05)
(6.88703e-05 9.25596e-05 -4.56438e-05)
(8.08343e-05 0.000105407 -3.52022e-05)
(9.60398e-05 0.000123175 -5.02117e-05)
(8.33802e-05 0.000142327 -2.04135e-05)
(0.000127751 0.000152106 -2.99692e-05)
(8.27443e-05 0.000106941 -3.37174e-06)
(8.1781e-05 0.000110012 -1.15878e-05)
(6.18293e-05 0.000133053 2.76851e-05)
(4.52682e-05 0.000102585 -4.54841e-06)
(3.5733e-05 0.000138486 2.13605e-05)
(1.33134e-05 0.000141034 4.64198e-05)
(1.35309e-06 8.92428e-05 1.48023e-05)
(2.22884e-06 0.000119102 2.16255e-05)
(-2.20501e-07 0.000132203 2.17954e-05)
(-3.70378e-06 0.00013874 1.54777e-05)
(-8.03062e-06 0.0001398 4.02385e-06)
(-1.62302e-05 0.000127119 -3.6257e-06)
(-2.49326e-05 0.000113254 -9.98376e-06)
(-3.40547e-05 9.91784e-05 -9.49232e-06)
(-3.18715e-05 7.1119e-05 -6.93354e-06)
(-4.1645e-05 8.61995e-05 -1.14801e-06)
(-2.12604e-05 6.42357e-05 -3.54605e-06)
(-2.22096e-05 9.36849e-05 -1.12242e-05)
(-1.59785e-05 0.000103492 -4.97637e-06)
(-3.13922e-06 0.000120112 1.6876e-06)
(8.45319e-06 0.000131328 8.88865e-06)
(1.57005e-05 0.000131631 1.94037e-05)
(1.99979e-05 0.000125963 2.54556e-05)
(2.01414e-05 0.000110109 2.54282e-05)
(2.55559e-05 9.94389e-05 2.26592e-05)
(4.7538e-05 0.000159882 2.40257e-05)
(5.46958e-05 0.000131349 1.81158e-05)
(5.2029e-05 0.000100911 1.21215e-05)
(9.48275e-05 0.000154948 -6.02148e-06)
(0.000148643 0.000362341 0.000123713)
(0.000227408 0.00047801 0.000141374)
(0.000284681 0.000585669 0.00018197)
(0.000279827 0.000708606 0.000273863)
(0.000313 0.000785843 0.000371267)
(0.000268002 0.000854354 0.000494929)
(0.000261824 0.000912895 0.000614905)
(0.000198573 0.000953594 0.000777781)
(0.000164316 0.00092418 0.00133516)
(0.000159253 0.000750171 0.00143473)
(8.8021e-05 0.000703223 0.00168076)
(1.75363e-05 0.000614585 0.00198599)
(-5.5354e-05 0.000554591 0.00223581)
(-0.000141143 0.000417898 0.00256887)
(-6.41411e-05 0.000478372 0.00255843)
(-0.000246438 2.0929e-05 0.00330717)
(-0.000307987 -3.79336e-05 0.00362986)
(-0.000406476 -0.000220199 0.00405916)
(-0.000412276 -3.72127e-05 0.00404997)
(-0.000567516 -0.000225533 0.00461797)
(-5.57027e-05 8.0205e-05 0.000169221)
(-2.26154e-05 6.82881e-05 0.00013182)
(-5.28483e-05 0.000126559 0.000258586)
(2.82831e-07 0.000150586 0.000229544)
(3.13797e-05 0.000146734 0.000196589)
(4.55253e-05 0.000135449 0.00017787)
(6.05751e-05 0.000127657 0.000145562)
(6.65634e-05 0.000114007 0.00011699)
(7.26312e-05 0.000106762 8.65351e-05)
(7.04214e-05 9.80735e-05 6.56303e-05)
(6.91257e-05 8.86385e-05 4.41264e-05)
(6.20233e-05 7.25246e-05 2.46485e-05)
(6.67586e-05 8.8098e-05 6.7602e-06)
(7.66973e-05 0.000106047 1.09692e-05)
(7.01391e-05 9.00214e-05 -7.66163e-06)
(6.18677e-05 7.43777e-05 -1.55106e-05)
(6.21326e-05 8.41845e-05 -2.63041e-05)
(6.1938e-05 9.57074e-05 -2.18539e-05)
(6.42004e-05 9.81965e-05 -4.26554e-05)
(6.10141e-05 0.000108651 -3.17502e-05)
(9.45249e-05 0.000126413 -4.11098e-05)
(6.20845e-05 8.82858e-05 -2.97555e-05)
(9.15625e-05 0.00010928 -5.74109e-05)
(9.08605e-05 0.000123105 -3.60888e-05)
(7.25126e-05 9.24373e-05 -3.30183e-05)
(9.06213e-05 0.000103447 -3.09225e-05)
(0.000105535 0.000104986 -5.17435e-05)
(9.84676e-05 0.000122306 -2.88521e-05)
(0.000133038 0.000121679 -4.17775e-05)
(9.30814e-05 9.17488e-05 -1.35807e-05)
(0.000113391 0.000100359 -3.36433e-05)
(9.74065e-05 0.000120798 8.14841e-06)
(0.000144477 0.000125412 1.833e-05)
(0.000107292 0.000114466 1.06823e-05)
(8.18245e-05 0.000145242 0.000101253)
(-1.09656e-06 8.65527e-05 0.000106197)
(-2.70684e-05 6.76668e-05 0.000161984)
(-7.73701e-05 5.12997e-05 0.000138119)
(-6.08004e-05 6.7758e-05 0.000121473)
(-8.41536e-05 4.28975e-05 0.000208373)
(-0.000113304 -1.33459e-05 0.000154763)
(-8.35871e-05 8.95637e-05 0.00013031)
(-7.76e-05 7.69789e-05 0.000119298)
(-6.84718e-05 5.74938e-05 0.000110839)
(-5.29742e-05 2.02417e-05 4.98203e-05)
(-3.67361e-05 5.75371e-05 3.01651e-05)
(-2.88512e-05 5.8091e-05 1.41895e-05)
(-3.56214e-05 8.67854e-05 3.08064e-05)
(-1.21394e-05 5.9901e-05 2.18637e-05)
(-1.04569e-05 6.79566e-05 2.8553e-05)
(-6.67436e-06 5.50785e-05 3.90438e-05)
(-2.26408e-05 0.000118095 6.75548e-05)
(-5.45765e-06 0.000117928 8.06216e-05)
(-4.58216e-06 9.82052e-05 9.26334e-05)
(1.39305e-05 7.92969e-05 8.66604e-05)
(-0.000205363 8.19701e-05 0.000421286)
(-0.000181823 0.000245662 0.000436023)
(-0.000147112 0.000362465 0.000679941)
(-0.000112327 0.000493139 0.00084881)
(-0.00011652 0.000602923 0.00109813)
(-0.000102112 0.000654617 0.00121734)
(-0.000155561 0.000756524 0.00145258)
(-0.000140906 0.000805569 0.00162981)
(-0.000173032 0.000751609 0.00182597)
(-5.61636e-06 0.000952594 0.00151751)
(8.9562e-05 0.000839061 0.00154622)
(0.000207445 0.000857145 0.00119909)
(0.00031616 0.000821696 0.000930217)
(0.000222941 0.000812281 0.00113687)
(0.000289575 0.000679469 0.000915042)
(0.000196797 0.000662851 0.00121823)
(0.000135165 0.000609581 0.00149039)
(4.13823e-05 0.000535523 0.00182045)
(-3.21971e-05 0.000465274 0.00207971)
(-0.000140553 0.000366324 0.00242199)
(-0.000152614 0.000255197 0.00248819)
(-0.000189852 0.000179372 0.00289607)
(-0.000296091 -5.58009e-05 0.00293323)
(-0.000375003 -0.000191517 0.00337874)
(-0.000419087 -0.000229998 0.00367424)
(-0.00056046 -0.000387024 0.00408875)
(-0.000706267 -0.000589319 0.00432378)
(-0.000715363 -0.000395271 0.00438424)
(-5.02997e-05 0.000175526 0.000359793)
(-4.10774e-06 0.000153845 0.000268599)
(1.28268e-05 0.000150886 0.000255621)
(3.41315e-05 0.00013668 0.000204971)
(4.55701e-05 0.000121872 0.000162445)
(5.70332e-05 0.000111668 0.000129187)
(6.81407e-05 0.000110537 0.000107405)
(7.05244e-05 0.000100052 7.87646e-05)
(6.91042e-05 8.45063e-05 5.11924e-05)
(7.40484e-05 9.9393e-05 6.11591e-05)
(9.92482e-05 0.000115507 6.2176e-05)
(8.86903e-05 9.28418e-05 2.26212e-05)
(7.93138e-05 7.52361e-05 3.29642e-06)
(8.40232e-05 9.02051e-05 -1.11918e-05)
(9.07146e-05 0.000102555 -8.51633e-06)
(8.21468e-05 8.13929e-05 -2.26106e-05)
(8.50901e-05 9.05157e-05 -3.73895e-05)
(8.56068e-05 0.00010719 -2.99431e-05)
(0.000107333 0.000103607 -3.4377e-05)
(7.79107e-05 7.48781e-05 -2.28644e-05)
(0.000108888 8.78771e-05 -4.01246e-05)
(0.000103866 0.000101422 -2.32294e-05)
(0.000136788 0.000103062 -2.36796e-05)
(0.000139508 0.000100193 -4.02663e-05)
(0.000138718 0.000120066 -1.57785e-05)
(0.000110611 9.22832e-05 -1.20994e-05)
(0.000134692 9.80399e-05 5.10504e-06)
(0.000125127 9.63119e-05 -7.43986e-06)
(0.000120038 0.000124606 4.64691e-05)
(0.000176853 0.000128818 6.89777e-05)
(7.55282e-05 0.000111458 7.96676e-05)
(4.04661e-05 0.000102369 0.000182299)
(-2.81409e-05 3.97901e-06 0.000346877)
(-8.05753e-05 4.39894e-05 0.000507721)
(-0.000294058 -0.000213971 0.000894946)
(-0.000378266 -0.000448721 0.000894446)
(-0.000400843 -0.00130717 0.00283796)
(-0.000395089 -0.00166819 0.0032383)
(-0.000514902 -0.00189314 0.00382852)
(-0.000507265 -0.00191786 0.00373618)
(-0.000375759 -0.0013502 0.00269009)
(-0.000315485 -0.00111737 0.00215779)
(-0.000288813 -0.000953748 0.00171185)
(-0.000207202 -0.000754956 0.00136411)
(-0.000253574 -0.000408728 0.000825638)
(-0.000393158 -0.000484609 0.00106241)
(-0.000287491 -0.00030729 0.000534415)
(-0.000145206 -7.05782e-05 0.000165403)
(-9.06646e-05 -1.25161e-05 7.64809e-05)
(-6.87936e-05 1.66762e-05 4.43834e-05)
(-5.00149e-05 2.5167e-05 2.38479e-05)
(-5.89839e-05 4.76695e-05 4.51754e-05)
(-3.98862e-05 2.73364e-05 4.1862e-05)
(-5.27911e-05 3.94104e-05 5.59831e-05)
(-5.98675e-05 2.48855e-05 8.33783e-05)
(-5.36477e-05 5.60536e-05 6.11176e-05)
(-3.4445e-05 2.51108e-05 5.42566e-05)
(-5.16346e-05 1.43179e-05 5.68186e-05)
(-0.000110905 -3.78544e-05 0.000152738)
(-0.000102169 -9.80053e-05 0.000218327)
(-0.000167235 -0.000166452 0.000294432)
(-0.000185961 -0.000376566 0.000658625)
(-0.000213808 -0.000455119 0.000846732)
(-0.000300008 -0.000271932 0.000511729)
(-0.000384551 -0.000370417 0.000924457)
(-0.000246532 -0.000188904 0.000663222)
(-0.00022165 -0.000377187 0.00100625)
(-0.000145513 -0.00035344 0.000807412)
(-0.000375574 -0.000563757 0.0012593)
(-0.000275513 -0.000619461 0.00134663)
(-0.000185651 -0.00050921 0.000902724)
(-0.000156353 -0.000104559 0.000332582)
(-0.000293805 -0.000328051 0.000583832)
(-0.000337008 -0.000678975 0.00118981)
(-0.000476236 -0.000586752 0.00136692)
(-0.000402797 -0.000491585 0.00114871)
(-0.000434027 -0.000207496 0.000821762)
(-0.000493146 -0.000355916 0.00104151)
(-0.000574608 -0.000351222 0.00110985)
(-0.000657229 -0.000657553 0.00177983)
(-0.000648652 -0.000429272 0.00127824)
(-0.000683532 -0.000249119 0.00116237)
(-0.000454087 -8.30954e-05 0.00147305)
(-0.00034334 0.000177395 0.00142453)
(-0.0002008 0.000308039 0.00152557)
(-0.000127055 0.000393574 0.00169143)
(-4.56788e-05 0.000482234 0.00175879)
(-8.80115e-05 0.000517678 0.00199617)
(-4.83968e-05 0.000539395 0.00217329)
(-0.000112511 0.00051698 0.00234825)
(-0.000171899 0.000199859 0.00323173)
(-0.000297982 6.09593e-05 0.00300556)
(-0.000203347 0.000145928 0.00270853)
(-0.000428949 -0.000525155 0.0031249)
(-0.000491758 -0.000750961 0.00359147)
(-0.000598778 -0.00113625 0.00422959)
(-0.00057305 -0.001036 0.00445945)
(-0.000617359 -0.00137662 0.00549215)
(-0.000680251 -0.00167182 0.00645781)
(-0.000813651 -0.00207868 0.00752584)
(-0.000933181 -0.00240773 0.00836608)
(-9.57049e-05 0.00011726 0.000308682)
(-7.13255e-05 8.69497e-05 0.000231774)
(-3.2602e-05 6.61814e-05 0.000170597)
(-7.62708e-05 9.53015e-05 0.000267763)
(-4.14201e-05 0.000114759 0.000240143)
(-8.37801e-06 0.000108918 0.000200756)
(3.74851e-05 0.000154115 0.000207961)
(4.43076e-05 0.000126442 0.000145471)
(5.28018e-05 0.000103191 0.000103973)
(5.38718e-05 8.15675e-05 7.023e-05)
(2.92549e-05 6.41342e-05 8.21362e-05)
(2.28879e-05 9.22762e-05 0.000121127)
(8.03806e-05 0.00013223 0.000142235)
(7.09923e-05 8.66134e-05 7.38169e-05)
(6.97623e-05 7.32018e-05 4.31153e-05)
(9.30726e-05 9.28149e-05 3.36665e-05)
(0.000108007 0.000105106 2.95608e-05)
(9.55576e-05 7.5056e-05 1.50329e-06)
(0.000104704 8.8808e-05 -1.52431e-05)
(0.000110757 9.8102e-05 -9.09153e-06)
(9.79034e-05 7.38881e-05 -2.04486e-05)
(0.000114132 8.19951e-05 -4.74569e-06)
(0.000116242 8.37626e-05 -8.93474e-06)
(0.000121368 9.30347e-05 1.01069e-06)
(0.000150965 9.84722e-05 7.89349e-06)
(0.000137871 9.23125e-05 -4.03515e-06)
(0.000147737 0.000103623 2.58482e-05)
(0.000110539 7.77597e-05 1.50494e-05)
(0.000161081 0.000136259 5.56507e-05)
(0.000117843 0.000108485 7.57809e-05)
(9.25946e-05 0.000156702 0.000198629)
(-1.25028e-05 0.000100102 0.000360196)
(-0.000217656 -9.26995e-05 0.000841234)
(-0.000588394 -0.000274657 0.0015333)
(-0.000693363 -0.00158747 0.00431203)
(-0.000701713 -0.00239255 0.00531018)
(-0.000532407 -0.00342399 0.00667593)
(-0.000543705 -0.00327587 0.00648331)
(-0.00050382 -0.00355574 0.00654354)
(-0.00053922 -0.00360533 0.00703837)
(-0.000577217 -0.00353817 0.00669023)
(-0.00049503 -0.00313843 0.00599014)
(-0.0004985 -0.00273664 0.00525094)
(-0.000540585 -0.00245052 0.00455609)
(-0.000426825 -0.0019945 0.00356027)
(-0.000412641 -0.00129258 0.00241028)
(-0.000321437 -0.000950742 0.00157157)
(-7.97742e-05 -0.00045661 0.000797937)
(-0.000190264 -0.000449634 0.000978893)
(-0.000221266 -0.000240424 0.000601492)
(-0.000128642 -0.000139178 0.000272609)
(-8.96075e-05 -0.000271879 0.000383782)
(-0.000181234 -0.000452954 0.000679538)
(-0.000322343 -0.000685596 0.00126686)
(-0.000440045 -0.00103997 0.00179018)
(-0.000236333 -0.000685227 0.00116603)
(-0.00031908 -0.000650735 0.00117441)
(-0.000492092 -0.00065605 0.00112092)
(-0.000537026 -0.00108038 0.00187346)
(-0.000582733 -0.00103065 0.00181149)
(-0.000690436 -0.00120839 0.00195661)
(-0.000927658 -0.00150134 0.00289472)
(-0.00109329 -0.00164602 0.00350974)
(-0.00137431 -0.00277738 0.00611289)
(-0.00130799 -0.0044098 0.00918006)
(-0.00146469 -0.00344823 0.00845896)
(-0.00154066 -0.00332404 0.00914375)
(-0.00156193 -0.00316339 0.00953171)
(-0.00153668 -0.00307631 0.00985228)
(-0.00160381 -0.00308831 0.0101561)
(-0.00159763 -0.00311372 0.0104417)
(-0.00166688 -0.00320681 0.0107785)
(-0.00160141 -0.00331407 0.0111186)
(-0.00162203 -0.00348966 0.0115472)
(-0.00150291 -0.00369152 0.0120029)
(-0.00149381 -0.00398623 0.0125461)
(-0.00138018 -0.0043318 0.0131182)
(-0.00138973 -0.00475371 0.0137168)
(-0.00132947 -0.00520347 0.0142774)
(-9.53795e-05 5.5543e-05 0.000290173)
(-0.000121563 6.07921e-05 0.000392037)
(-8.04035e-05 2.89284e-05 0.000286514)
(-7.6157e-05 6.29342e-06 0.00024374)
(-4.09639e-05 -1.39226e-05 0.000160398)
(-8.36745e-05 -4.11328e-05 0.000222975)
(-6.5967e-05 2.12643e-05 0.000158666)