/*--------------------------------*- C++ -*----------------------------------*\
| =========                 |                                                 |
| \\      /  F ield         | OpenFOAM: The Open Source CFD Toolbox           |
|  \\    /   O peration     | Version:  5.0                                   |
|   \\  /    A nd           | Web:      www.OpenFOAM.org                      |
|    \\/     M anipulation  |                                                 |
\*---------------------------------------------------------------------------*/
FoamFile
{
    version     2.0;
    format      ascii;
    class       volVectorField;
    location    "60";
    object      wallShearStressHyper;
}
// * * * * * * * * * * * * * * * * * * * * * * * * * * * * * * * * * * * * * //

dimensions      [1 -1 -2 0 0 0 0];

internalField   uniform (0 0 0);

boundaryField
{
    Wall_Aorta
    {
        type            calculated;
        value           nonuniform List<vector> 
7045
(
(0.00480047 -0.00864826 0.021076)
(0.00496706 -0.00773302 0.0222708)
(-0.000494493 -0.00757573 0.0188901)
(-0.00298711 -0.00755472 0.0235228)
(-0.00226905 -0.0070378 0.0228404)
(0.00251915 -0.00470238 0.0198142)
(-0.00574161 -0.00957071 0.0333057)
(-0.00749363 -0.0181953 0.0388555)
(1.50284 0.0696091 0.230857)
(1.45216 -0.538223 0.218404)
(1.69534 -0.27321 0.318369)
(0.247726 0.113777 -0.0126655)
(0.168071 0.0777127 -0.00607356)
(0.252243 0.104009 -0.0368817)
(0.157694 0.0851138 -0.0441696)
(0.168516 0.07476 -0.0484107)
(0.00522485 0.00792036 0.00526387)
(0.00640877 0.00850219 0.00417412)
(0.00657045 0.00778065 0.00335297)
(0.00595018 0.00800295 0.00488319)
(0.00687803 0.00763035 0.00351563)
(0.00583651 0.00710379 0.00668238)
(0.00686888 0.00634851 0.00368566)
(0.00638326 0.00848961 0.00487524)
(0.00697577 0.00723768 0.00325682)
(0.00738892 0.00838057 0.0071317)
(0.00805705 0.00932943 0.00815803)
(0.00709339 0.00905593 0.0099501)
(0.00848957 0.00994168 0.00875987)
(0.00919687 0.00875828 0.00725839)
(0.0075854 0.00844406 0.00794729)
(0.00651435 0.00717666 0.00896529)
(0.00777702 0.00874969 0.0084149)
(0.00851977 0.00724514 0.0066027)
(0.0080488 0.00878459 0.0117756)
(0.00948547 0.00740824 0.00773992)
(0.00958864 0.00826131 0.0125393)
(0.0048314 0.00597091 0.00516889)
(0.00582664 0.00756953 0.00477725)
(0.00591108 0.00609537 0.00354974)
(0.0048634 0.0053043 0.00600264)
(0.00588643 0.00527088 0.00320873)
(0.00649172 0.0065049 0.007207)
(0.00558537 0.00468091 0.00809088)
(0.00667061 0.00597515 0.00756589)
(0.00746761 0.00497213 0.00590778)
(0.00418695 0.00479269 0.00544986)
(0.0053488 0.00478339 0.00275547)
(0.00353465 0.00415626 0.00473872)
(0.00472698 0.00400843 0.00238639)
(0.00565287 0.00385748 0.00722942)
(0.00690614 0.00374618 0.00541884)
(0.00530994 0.00286642 0.00653713)
(0.00624023 0.00319492 0.00486562)
(0.00683484 0.00611043 0.0104876)
(0.00830723 0.00500604 0.00680195)
(0.00775695 0.00499492 0.0106736)
(0.00847073 0.00642678 0.014821)
(0.00979062 0.00795223 0.013287)
(0.0109258 0.00627112 0.01118)
(0.00938592 0.00413534 0.0139117)
(0.0106817 0.00403736 0.0115251)
(0.00715358 0.0034645 0.0106606)
(0.00701545 0.00242176 0.0104514)
(0.00803209 0.00237097 0.0161021)
(0.00981335 0.00255549 0.0108636)
(0.00692439 0.000821513 0.0142827)
(0.00933325 0.000510113 0.0105399)
(0.00867495 0.00988564 0.0101021)
(0.0098494 0.00852395 0.00806595)
(0.010623 0.0107165 0.0144387)
(0.0112239 0.0118203 0.015308)
(0.010786 0.0124312 0.0197638)
(0.0120126 0.0125618 0.0165076)
(0.0131567 0.0100985 0.015381)
(0.00951561 0.00973074 0.0174301)
(0.0112018 0.0104079 0.0150033)
(0.0124056 0.00908372 0.0128689)
(0.0114145 0.00835644 0.0168833)
(0.0127694 0.0066734 0.0138219)
(0.0151412 0.0103069 0.0205989)
(0.0150022 0.00967052 0.0254971)
(0.0120528 0.0151877 0.0217864)
(0.0133822 0.0141418 0.0174588)
(0.0138143 0.0119807 0.0168236)
(0.0168448 0.0131142 0.0231657)
(0.01888 0.0163522 0.02556)
(0.0188498 0.0169397 0.0321817)
(0.0171761 0.0129424 0.0291914)
(0.0154798 0.011005 0.0329306)
(0.0172417 0.0118771 0.0303272)
(0.0187787 0.00834284 0.0277182)
(0.0189633 0.0153681 0.0408612)
(0.0192095 0.016759 0.0345773)
(0.0213872 0.0123625 0.0337443)
(0.0234248 0.0118707 0.0456121)
(0.0123085 0.00675087 0.0200568)
(0.0116719 0.00445818 0.0196626)
(0.0129889 0.0064153 0.0270668)
(0.0147734 0.00788359 0.0253818)
(0.01622 0.00643845 0.0211342)
(0.0126255 0.00387726 0.0249947)
(0.0156385 0.00172625 0.0215981)
(0.0099922 0.00118088 0.0216421)
(0.0110067 0.00302731 0.0193638)
(0.0131556 0.00211581 0.0165275)
(0.00990224 -0.00102571 0.0200075)
(0.0125051 -0.000813883 0.0160054)
(0.0153667 0.000294941 0.0248604)
(0.0132722 -0.00243849 0.0277942)
(0.02015 0.00582928 0.0323137)
(0.0179089 0.00260366 0.0366751)
(0.0225846 0.00765974 0.0448825)
(0.0176089 8.38794e-08 0.0350692)
(0.0213856 0.00238792 0.0536567)
(0.0217681 0.00445374 0.0460047)
(0.0243709 0.0033266 0.0409066)
(0.0156858 -0.00510637 0.037593)
(0.0166164 -0.0029288 0.0347896)
(0.0186718 -0.00323007 0.0289296)
(0.0200249 -0.00292407 0.0484112)
(0.0248492 -0.00507635 0.0415822)
(0.023411 -0.00747417 0.045562)
(0.00339875 0.00393715 0.004304)
(0.00269629 0.00333282 0.00381054)
(0.00422288 0.00226094 0.0075323)
(0.00529037 0.00268402 0.00419042)
(0.00330536 0.0018398 0.00631798)
(0.00437533 0.00230311 0.00349457)
(0.00207534 0.00261302 0.00337613)
(0.00136632 0.00132866 0.00314421)
(0.00225441 0.0023602 0.00332876)
(0.00247057 0.00207647 0.00151506)
(0.00241077 0.00118917 0.00518856)
(0.00364052 0.00143568 0.00308471)
(0.00255626 0.00091217 0.0045501)
(0.00535116 0.000511198 0.0101313)
(0.00673026 0.00189965 0.0101909)
(0.00753483 0.00147065 0.00741573)
(0.00518367 -0.000168624 0.008944)
(0.00659038 0.000349485 0.00684036)
(0.00787946 0.00020524 0.0136279)
(0.00702098 -0.00106444 0.0126657)
(-0.000101141 0.00624297 0.000524868)
(-0.00122907 0.00636676 0.000266693)
(-0.00106061 0.00597321 -0.000123999)
(-0.00102172 0.00602136 0.000516611)
(-0.00218795 0.00576456 4.99445e-05)
(-0.00199106 0.00551309 -0.000618319)
(-0.000544986 0.00613255 0.000506955)
(-0.00173124 0.00625705 8.37085e-05)
(-0.0014707 0.00571661 -0.000346698)
(-0.00128676 0.00707046 0.00072936)
(-0.00178876 0.00709571 0.000878419)
(-0.00155478 0.00745614 0.00106129)
(-0.00139506 0.00669561 0.00103041)
(-0.00249439 0.00611144 0.000337734)
(-0.00164767 0.00698919 0.00141525)
(-0.00281091 0.00645949 0.000828785)
(0.00431827 -0.000823518 0.00777489)
(-0.00195269 0.00758614 0.00128556)
(0.00556248 -8.77577e-05 0.00562841)
(-0.00188713 0.00771354 0.00111622)
(0.00355986 -0.0011958 0.00664104)
(-0.00229917 0.0077825 0.00159151)
(0.00463009 -0.000470103 0.00477745)
(-0.00219158 0.00812044 0.00140574)
(0.0061298 -0.00183584 0.0112456)
(-0.00162032 0.00720887 0.00204946)
(-0.0031704 0.00708979 0.00158433)
(0.00512013 -0.00222513 0.00962822)
(-0.00165071 0.00635575 0.00250193)
(-0.00279812 0.00626011 0.00212608)
(-0.00277071 0.00594457 0.00134785)
(-0.00282729 0.00754807 0.00269224)
(-0.00267469 0.00767743 0.0017803)
(0.00117452 0.00109031 0.00216754)
(-0.00252347 0.00802859 0.00258502)
(0.00169545 0.00146397 0.00111441)
(-0.00279252 0.00815575 0.0023933)
(-0.000954879 0.00681587 0.00244654)
(-0.0027693 0.00785025 0.00253641)
(-0.00253776 0.00709273 0.00190318)
(0.000727191 0.000665606 0.00144852)
(-0.00278657 0.00682128 0.003561)
(0.00117937 0.00111901 0.000514218)
(-0.0030288 0.00559935 0.00304845)
(-0.00287528 0.00593388 0.00305454)
(-0.00314299 0.00748628 0.00338488)
(-0.00260778 0.00713566 0.00428084)
(0.00187199 0.000370559 0.00361516)
(-0.00356426 0.00734678 0.00484315)
(-0.00309368 0.00787497 0.00320588)
(-0.00154678 0.007037 0.00301769)
(-0.00306377 0.00736218 0.00292663)
(-0.00328824 0.0080974 0.00412388)
(0.00132559 -1.25027e-05 0.0026571)
(-0.00158188 0.00728946 0.00381934)
(-0.00307988 0.00734374 0.00380257)
(-0.00243172 0.007105 0.005599)
(-0.00310911 0.00699483 0.00533643)
(-0.0021989 0.00707001 0.00715197)
(0.000294008 0.000436755 0.000660379)
(-0.00285576 0.006766 0.0069799)
(0.000597096 0.000855328 -8.55653e-05)
(-0.00316045 0.00810549 0.00510634)
(-0.00161761 0.00739028 0.00458866)
(-0.00289634 0.00731035 0.00452582)
(-0.00299522 0.00818308 0.00635648)
(-0.000196066 0.000145359 -0.000118558)
(-9.5305e-05 0.000378585 -0.000539722)
(0.000228348 0.000224338 -0.00075259)
(-0.00231735 0.00761242 0.00570175)
(-0.00289086 0.00695637 0.00570388)
(-0.00204909 0.00692805 0.00583072)
(-0.000573807 0.0068403 0.000758738)
(0.00070849 -0.00026603 0.00157812)
(-0.000919667 0.00648054 0.00019994)
(-0.000281955 0.00681229 0.000811682)
(-0.000675723 0.0066552 0.000323472)
(0.000169298 0.00697104 0.000867214)
(-0.000234058 0.00677111 0.000502567)
(0.000188227 -0.000533194 0.000495968)
(5.24237e-05 0.00668134 0.000704312)
(0.0004738 0.00721525 0.000869693)
(-0.000151338 0.00641815 0.000214738)
(-0.000885307 0.00712908 0.000921058)
(-0.000577559 0.0070063 0.00100358)
(-0.00121789 0.00744967 0.00102738)
(-0.000865514 0.00726172 0.000807635)
(-7.35794e-05 0.00701602 0.000899186)
(0.00038039 0.00679077 0.000768329)
(-0.00027754 0.00699836 0.00115554)
(0.000171535 0.00684215 0.000936431)
(0.00100276 0.00683395 0.000551121)
(0.000774268 0.00685884 0.000547995)
(0.00109575 0.00635732 0.000330397)
(0.00165066 0.00667863 0.000634976)
(0.00104408 0.0062411 -2.74083e-06)
(0.000772912 0.00663574 0.000871571)
(0.00141758 0.0064312 0.000359784)
(0.00137207 0.00628476 0.00028016)
(0.00218295 0.00622872 0.000653406)
(0.00136885 0.00598805 -0.000365874)
(-0.00147968 0.00739132 0.00155282)
(-0.000866153 0.00740962 0.00155055)
(-0.000178995 0.00652156 0.00126742)
(-0.00197134 0.00791545 0.00151076)
(-0.00188686 0.00697785 0.00103911)
(0.00280204 -0.00156186 0.00550263)
(-0.000601705 0.00654348 0.00112928)
(0.00378165 -0.000874817 0.00387104)
(-0.00140012 0.00667885 0.000684749)
(0.00220602 -0.00182253 0.004397)
(0.000936098 0.00649356 0.00089132)
(0.00304137 -0.0011496 0.00290945)
(-0.000442317 0.00743279 0.00130002)
(0.00413175 -0.00253244 0.00798986)
(-0.000437773 0.00671571 0.000884042)
(-0.000352759 0.00675417 0.000704522)
(0.00326117 -0.00271576 0.00645104)
(2.03203e-05 0.00713778 0.000829661)
(-0.000601464 0.0062758 0.000365013)
(-0.000457722 0.00680182 0.00100419)
(-1.57208e-06 0.00692498 0.000807767)
(-0.000575648 0.00663498 0.00172789)
(-0.00244222 0.00776723 0.00169749)
(-0.00106983 0.00686281 0.00143114)
(-0.00171431 0.00709567 0.00216117)
(-0.0012484 0.00706052 0.00192786)
(-0.000550375 0.00688773 0.0013793)
(-0.000171152 0.00692301 0.000958634)
(-0.000770225 0.00706753 0.00175014)
(-0.000419342 0.00715578 0.00132307)
(0.000907396 0.00674895 0.000786192)
(0.00126646 0.00630292 0.000765564)
(0.000574969 0.00684688 0.000633417)
(0.000382922 0.00659589 0.000473379)
(0.000499362 0.00627693 0.00065347)
(0.00110833 0.00676711 0.00100675)
(0.000448423 0.00595462 0.000108788)
(0.00190222 0.00640517 0.000658254)
(0.00176444 0.00603364 0.000277091)
(0.00263105 0.0057725 0.00077491)
(0.00190939 0.0057739 -0.000206081)
(0.00165096 0.006829 0.00068349)
(0.00226074 0.00609223 0.000739735)
(0.0016614 -0.00197007 0.00324785)
(0.000366672 0.00685441 0.000820084)
(0.00224777 -0.00125638 0.00186826)
(0.000967311 0.00671034 0.000701159)
(0.000654555 -0.00193068 0.00203852)
(0.00114935 -0.0014082 0.00119734)
(0.00162871 -0.00163445 0.000936599)
(0.000165952 0.00709827 0.00124347)
(0.00252505 -0.00290174 0.00500824)
(0.000642228 0.00695995 0.0010824)
(0.000947963 0.00671213 0.000762229)
(0.00175842 -0.00299787 0.00275589)
(0.00170597 0.00668911 0.00123455)
(0.000898263 0.006384 0.000359256)
(0.00201938 0.00661539 0.000865407)
(0.00133251 0.00707416 0.0010195)
(0.00108448 0.00668836 0.00112326)
(0.00189339 0.00613716 0.00101515)
(0.00128178 0.00628842 0.000544804)
(-0.00167828 0.00741298 0.00289057)
(-0.00124296 0.00733328 0.00259753)
(-0.0017736 0.00782917 0.00355553)
(-0.00134757 0.00771725 0.00324149)
(-0.000743338 0.00722893 0.0023669)
(-0.000546686 0.00729499 0.00193763)
(-0.000759362 0.00749176 0.00294072)
(-0.000623115 0.00739485 0.00268522)
(-0.00182849 0.00806971 0.00436265)
(-0.00132395 0.00797883 0.00398418)
(-0.00201556 0.00820285 0.00510541)
(-0.00139315 0.00828365 0.0047483)
(-0.000731216 0.00769482 0.00361938)
(-0.000589743 0.00763237 0.00341443)
(-0.000740686 0.00790335 0.00431692)
(-0.000621862 0.00778674 0.00424312)
(5.28648e-05 0.00731049 0.00176923)
(0.000450112 0.00713013 0.00157391)
(-0.000124161 0.00737938 0.00251632)
(0.000235226 0.00718996 0.00215742)
(0.00102862 0.00726 0.001495)
(0.000944105 0.00673053 0.00144526)
(0.00211524 0.00663189 0.001949)
(0.000781488 0.00734672 0.00214752)
(0.00143638 0.00709231 0.0019862)
(-6.47872e-05 0.00744245 0.00324879)
(0.00904173 -0.00288466 0.0181977)
(8.4805e-05 0.00726217 0.00284046)
(0.0113514 -0.0019357 0.014578)
(-4.38243e-05 0.00746978 0.00396172)
(5.1053e-05 0.00717878 0.00358615)
(0.000687013 0.0073171 0.00280734)
(0.00118573 0.00709709 0.00266192)
(0.00811416 -0.0041318 0.0164203)
(0.000617026 0.00714768 0.00346149)
(0.0101939 -0.00306756 0.0133699)
(0.0011009 0.00695094 0.00334382)
(0.00210135 0.00575469 0.000509812)
(0.00311531 0.00565407 0.00111145)
(0.0023046 0.00554185 -8.21004e-05)
(0.012228 -0.00457343 0.0250381)
(0.0026819 0.00588976 0.000941719)
(0.00258972 0.00576695 0.000929997)
(0.00400911 0.00549434 0.00117089)
(0.00294923 0.00564837 0.000563825)
(0.0023746 0.00658455 0.00111942)
(0.0110536 -0.00588062 0.0224471)
(0.00238127 0.0056441 0.0010916)
(0.00384653 0.00573624 0.00157667)
(0.00228581 0.00638254 0.00158531)
(0.00255993 0.00559017 0.00183799)
(0.00410589 0.00610239 0.0025573)
(0.00130336 0.00642534 0.00199008)
(0.00239697 0.00544047 0.00182922)
(0.00152783 0.00595421 0.00112838)
(0.00293249 0.00641106 0.00217048)
(0.00363538 0.00640491 0.00298092)
(0.00546241 0.00674549 0.00413607)
(0.00382297 0.00653802 0.00240936)
(0.00112302 0.0063689 0.00264091)
(0.00235672 0.00578007 0.00268105)
(0.00270837 0.00650997 0.00289176)
(0.00104259 0.00628754 0.00334948)
(0.00234251 0.00587123 0.00332694)
(0.00268132 0.0066435 0.00376557)
(0.0034806 0.00666039 0.00387659)
(0.00544519 0.00767663 0.00527016)
(0.00350694 0.00705878 0.0049971)
(0.00563305 0.00856794 0.00665282)
(0.00458614 -0.00178339 0.000679061)
(0.00435573 -0.000353038 0.00082857)
(0.00448628 -0.00184027 0.000176528)
(0.00524493 -0.00081587 0.000696746)
(0.00491719 -0.00188513 0.00028006)
(0.00547718 -0.000799087 0.00139738)
(0.0054539 -0.00193532 0.00048063)
(0.00601514 -0.000567241 0.00168965)
(0.00598261 -0.00196239 0.00085529)
(0.00651748 -0.000520742 0.00190287)
(0.00653532 -0.00185435 0.00096328)
(0.00721471 -0.00515504 0.0145877)
(0.00693698 -0.000290975 0.00204497)
(0.00907721 -0.00385733 0.011862)
(0.00694151 -0.00166484 0.00111894)
(0.00738376 -0.000134526 0.00207416)
(0.00734335 -0.00147961 0.00115662)
(0.00757427 9.62167e-05 0.00198159)
(0.00605305 -0.00557035 0.0124946)
(0.00750899 -0.00109954 0.00127522)
(0.00773672 -0.0041757 0.0100676)
(0.0076055 0.000254328 0.00167886)
(0.00750346 -0.0007236 0.00100934)
(0.00782848 0.000769396 0.00137317)
(0.00781107 -0.000116894 0.00100807)
(0.00978629 -0.00702126 0.0199287)
(0.00827348 0.000811443 0.0014836)
(0.00774884 0.000621483 0.00110895)
(0.00745086 -7.53031e-05 0.000374877)
(-0.00134715 0.00139234 0.000710798)
(-0.00158814 0.00179605 0.000432177)
(0.0082811 -0.00744588 0.016845)
(-0.00186485 0.00105527 4.44684e-05)
(-0.00165029 0.00210614 0.000276832)
(-0.00202513 0.00239236 0.000282312)
(-0.00215387 0.00154432 7.83653e-05)
(-0.00214939 0.000995272 0.000595272)
(-0.00177328 -0.00361496 0.00487339)
(-0.00135175 -0.00261454 0.00493544)
(-0.00223604 -0.00477278 0.00361339)
(-0.000476742 -0.0095233 0.0085812)
(-0.000209583 -0.00755047 0.00994307)
(0.000878892 -0.00813585 0.0124883)
(0.00245853 -0.00718784 0.00936831)
(0.00243064 -0.00480202 0.0107455)
(0.000263903 -0.00377457 0.00365928)
(0.000299801 -0.00279614 0.00416298)
(0.00010826 -0.0041934 0.00292624)
(0.00154325 -0.00400676 0.00337489)
(0.00150071 -0.00296431 0.00402212)
(0.00148592 -0.0043839 0.00283839)
(0.00154042 -0.00309694 0.00430946)
(0.000722191 -0.00529888 0.00314163)
(0.000966194 -0.00582747 0.00383138)
(-0.00144631 -0.00543825 0.00640358)
(-0.00136859 -0.00432229 0.00681263)
(-0.00193097 -0.00660487 0.00595786)
(0.000189313 -0.00513428 0.0075864)
(-0.00163483 -0.00888932 0.0064811)
(-0.000695526 -0.00395251 0.00427717)
(-0.000287116 -0.00257798 0.00449517)
(-0.000821147 -0.00496894 0.00321658)
(-0.000478007 -0.00566173 0.00433094)
(0.000576425 -0.00655474 0.0061774)
(0.000456897 -0.00455547 0.00687454)
(0.000321991 -0.00852457 0.00554998)
(0.00174638 -0.00472941 0.00667076)
(0.000560007 -0.00821031 0.00511978)
(0.000363546 -0.00039712 0.000251156)
(0.000344382 0.000259707 0.000408416)
(0.000439156 -0.00066188 -0.000446428)
(0.00105119 -0.00186766 0.00124954)
(0.00108376 -0.000831111 0.00152502)
(0.000942775 -0.00241313 0.000806486)
(0.00191882 -0.00318663 0.00217984)
(0.00192241 -0.00194363 0.00265158)
(0.00188583 -0.0039083 0.00171465)
(0.00217516 -0.00221407 0.00108982)
(0.00208345 -0.00105959 0.00137607)
(0.00216824 -0.00264606 0.000645543)
(0.00187031 -0.00123496 0.00163049)
(0.001434 -0.00266254 0.000745586)
(0.00245741 -0.00200869 0.000453024)
(0.00273304 -0.000849622 0.000553217)
(0.00234449 -0.00205782 1.22116e-05)
(0.00213957 -0.00155837 0.000288001)
(0.00199749 -0.000706713 0.000665427)
(0.00203036 -0.00170639 -0.000500036)
(0.00295198 -0.00136814 0.000634261)
(0.0012515 -0.00143901 0.000470719)
(0.00157113 -0.000503151 0.00053365)
(0.00125867 -0.00169944 3.86356e-05)
(0.000652169 -0.00111436 0.000704365)
(0.0145193 -0.00900234 0.0341587)
(0.000748264 -0.000275577 0.000931618)
(0.0170229 -0.00750352 0.0272926)
(0.000731241 -0.0013801 8.75631e-07)
(0.0129439 -0.0114276 0.0305959)
(0.000858783 -0.000887157 0.000142117)
(0.0156853 -0.00892867 0.0243347)
(0.00109284 -0.000147848 0.000283954)
(0.0205685 -0.0126978 0.0413227)
(0.000994777 -0.0010098 -0.000518412)
(0.00165108 -0.000800417 0.000413349)
(0.0182296 -0.0154035 0.0365146)
(0.00205784 -0.00104061 0.000766924)
(0.00176071 -0.00185887 -0.000114265)
(0.0111353 -0.0133157 0.0269403)
(-0.000512176 -0.00158202 0.00218741)
(0.0139642 -0.0104138 0.0215682)
(-0.000272096 -0.000577335 0.00218301)
(0.00945637 -0.0142917 0.0229005)
(-0.000592887 -0.00232887 0.00145403)
(0.0120316 -0.0109624 0.0181498)
(-0.00189293 -0.000887273 0.00324738)
(0.0156066 -0.0173341 0.0317061)
(-0.00183105 -0.000217634 0.00315471)
(-0.00240107 -0.00172835 0.0022544)
(0.013191 -0.0185126 0.0273365)
(-0.0011432 -0.0026239 0.00360383)
(-0.000785858 -0.00166508 0.00369528)
(-0.00134514 -0.00364449 0.00258191)
(-0.00192705 -0.00221092 0.00414167)
(-0.00171041 -0.00142266 0.00406413)
(-0.00239439 -0.00318199 0.00296701)
(-0.00123892 -0.00131587 0.00284751)
(-0.00101281 -0.000435821 0.00276604)
(-0.00148026 -0.00206852 0.0019564)
(-0.000784884 2.46659e-05 0.00126799)
(-0.000771799 0.000543134 0.00119093)
(-0.00127706 -0.000319551 0.000679378)
(-0.000431406 0.000393697 0.000305734)
(-0.000316358 0.000977472 0.000190698)
(-0.000589552 5.40146e-05 -0.000329469)
(-0.000957321 0.00079867 0.000596701)
(-0.0010201 0.00137615 0.000361239)
(-0.00110157 0.000431223 -0.000142644)
(-1.43345e-05 -0.000819964 0.00105468)
(8.82842e-05 -3.76648e-05 0.00105407)
(3.5114e-05 -0.00121342 0.00021656)
(-0.00033187 0.000177482 0.00140509)
(-0.000828889 -0.000962204 0.000877171)
(-2.2378e-05 0.00059085 0.000359528)
(-0.000287677 -0.000266598 -0.000169841)
(-0.00157664 0.000614692 0.00159083)
(-0.00145297 0.00104247 0.00131599)
(-0.00177591 -7.33953e-05 0.000950832)
(-0.00156839 -0.000683143 0.00155764)
(-0.00190813 0.000698553 0.00199246)
(-0.00221432 -0.000264552 0.00131794)
(0.000705111 -0.00289896 0.00241217)
(0.000704459 -0.00170604 0.0027684)
(0.00489032 -0.0057745 0.0104907)
(0.000519896 -0.0036927 0.00193756)
(0.0064555 -0.00441211 0.00831764)
(-0.000141817 -0.00286733 0.00305428)
(4.15326e-05 -0.00174033 0.00331069)
(-0.000424492 -0.00372981 0.00233746)
(0.00037683 -0.0017006 0.00158147)
(0.00391161 -0.00588095 0.00879463)
(0.00043386 -0.000674733 0.00179728)
(0.00532499 -0.00438973 0.00671796)
(0.000268034 -0.0023469 0.000996735)
(0.00165108 -0.00210382 0.00292318)
(0.000937748 -0.00384629 0.00192981)
(-0.00402117 -0.00266335 0.00680834)
(0.00696157 -0.00752267 0.0142838)
(-0.00352278 -0.00126493 0.00650306)
(-0.00443151 -0.00423885 0.00965426)
(-0.00189978 -0.0034343 0.00966542)
(-0.000700406 -0.00448129 0.0190178)
(-0.000403322 -0.00358131 0.0175812)
(0.00237681 -0.0051771 0.0155673)
(0.00506056 -0.00724168 0.0207933)
(0.00582397 -0.00775036 0.0101093)
(-0.00250877 0.000855763 0.00265537)
(-0.00295742 0.00124335 0.00240694)
(-0.00330621 4.33961e-06 0.00165655)
(-0.00305724 0.000344996 0.00381413)
(-0.00344469 0.000736939 0.00342277)
(-0.00394594 -0.000434864 0.00241726)
(-0.00294973 -0.000134468 0.00428594)
(-0.00406415 -0.00177202 0.00287923)
(-0.00243334 0.00181877 0.002329)
(-0.00300327 0.00224411 0.00188866)
(-0.00341486 0.00124986 0.00146275)
(-0.00251741 0.00188883 0.00260764)
(-0.00350447 0.000692222 0.00149513)
(-0.00219969 0.00287441 0.000868486)
(-0.00259693 0.00324817 0.000284821)
(-0.00255987 0.00251056 -0.000163548)
(-0.00218895 0.00112297 0.00194254)
(-0.00240554 0.00151677 0.0017892)
(-0.00258308 0.000503198 0.000954196)
(-0.002421 0.00204928 0.0015937)
(-0.00292821 0.00229675 0.00126071)
(-0.00274805 0.00142788 0.000456157)
(-0.00215453 0.00244596 0.000756452)
(-0.00249987 0.00170008 8.93876e-05)
(-0.00214872 0.00275696 0.00135069)
(-0.00288699 0.00313921 0.00078089)
(-0.00280328 0.00244742 0.000330435)
(-0.00174073 0.00342561 0.000782542)
(-0.00264194 0.00376108 0.000597959)
(-0.00240901 0.00306483 0.000415696)
(-0.00289224 0.00241959 0.000854629)
(0.00220518 -0.00538604 0.00681747)
(0.00334398 -0.00467663 0.00536057)
(0.00419358 -0.0047005 0.00536983)
(-0.00201578 0.00350826 0.000500825)
(0.00201945 -0.00427318 0.00402381)
(-0.00287854 0.003951 0.000299359)
(-0.0025637 0.00309925 -2.12311e-05)
(-0.00241706 0.00398176 0.000880422)
(-0.00156655 0.00402458 0.00106758)
(-0.00247562 0.00468374 0.000503467)
(0.0044661 -0.00733833 0.00771601)
(-0.00240446 0.0039003 0.000169522)
(-0.00156937 0.00455272 0.00104883)
(-0.00243339 0.00412003 0.000323834)
(-0.000897565 0.00418165 0.00225399)
(-0.00215228 0.0048065 0.00204729)
(0.00269414 -0.0068957 0.00549263)
(-0.0023576 0.00405696 0.00136254)
(0.00380917 -0.0053964 0.0038888)
(-0.00112381 0.00448777 0.00151236)
(-0.00213932 0.00407091 0.000649791)
(-0.00113624 0.00474963 0.0018424)
(-0.00211881 0.00230308 0.00270864)
(-0.00291163 0.00306006 0.00224462)
(-0.00332294 0.00199496 0.00146166)
(-0.0022486 0.00269892 0.00304058)
(-0.00361135 0.0016364 0.00200931)
(-0.00298005 0.00049972 0.00436175)
(-0.0035153 0.00138562 0.00380935)
(-0.00429557 -0.000550692 0.00287348)
(-0.00278901 5.48643e-06 0.00561523)
(-0.00442709 -0.00236606 0.00509912)
(-0.00172469 0.00212427 0.00414509)
(-0.00382576 0.000703211 0.00330424)
(-0.00157567 0.00245388 0.00416221)
(-0.00245206 0.00380744 0.0035018)
(-0.00298483 0.0019469 0.00421506)
(-0.00429853 -0.000487743 0.00690929)
(-0.00276816 -0.00222202 0.00868268)
(-0.0058722 -0.00748013 0.0140243)
(0.00010482 -0.00264765 0.0124229)
(0.00183664 -0.00469643 0.026316)
(0.000854484 -0.00362108 0.0247664)
(-0.00199866 0.00371421 0.00133411)
(-0.00283591 0.00320855 0.000710322)
(-0.00172412 0.00381151 0.0017293)
(-0.00287101 0.00330873 0.000860732)
(-0.00148206 0.00353872 0.00245338)
(-0.00267752 0.00304617 0.0011277)
(-0.00291088 -0.00206724 0.00499727)
(-0.00307094 -0.00142921 0.00486838)
(-0.00387704 -0.0023957 0.00337037)
(-0.00266187 -0.00507508 0.00723484)
(-0.00221185 -0.00389184 0.00740032)
(-0.00319092 -0.00739615 0.00746277)
(-0.00393162 -0.00389083 0.00779338)
(-0.00310122 -0.00338356 0.00773151)
(-0.00464392 -0.00589069 0.00851118)
(-0.00355618 -0.00814811 0.0123737)
(-0.00259766 -0.00298388 0.0051695)
(-0.00236945 -0.00219805 0.00519312)
(0.00663695 -0.0105692 0.0130317)
(-0.00321769 -0.00424872 0.00365446)
(-0.00211086 -0.00431283 0.0105237)
(-0.0046888 -0.00347944 0.0114477)
(0.000406897 -0.00595789 0.0224605)
(0.000100988 -0.00409654 0.0198081)
(-0.00319983 -0.00138521 0.00530778)
(-0.00322148 -0.000498991 0.00477048)
(-0.0038252 -0.00272489 0.00364484)
(-0.00469204 -0.0046989 0.00551686)
(-0.00268541 -0.00254974 0.00623273)
(-0.00381725 -0.00369037 0.00561191)
(-0.00360533 -0.00618284 0.0106641)
(-0.00160466 -0.00450453 0.0173519)
(-0.0038088 -0.00914625 0.0226754)
(-0.000728131 -0.00906033 0.0106725)
(-0.00128958 -0.0063867 0.0105463)
(0.00275339 -0.00262002 0.0152133)
(-0.000329768 -0.00781581 0.0132168)
(-0.00276075 -0.00712874 0.0150523)
(0.000706304 -0.00661076 0.0244294)
(0.00159028 -0.00186702 0.0215262)
(0.000926141 -0.00886475 0.0218147)
(0.000519318 -0.00589551 0.0204522)
(0.00532405 -0.00588119 0.0184944)
(0.00748537 -0.00568469 0.0231582)
(-0.00254515 -0.00942138 0.00858926)
(0.00302513 -0.00511596 0.0165323)
(0.00630696 -0.00595294 0.0221866)
(0.00560621 -0.00910129 0.0103073)
(-0.00267911 -0.00624226 0.0161924)
(0.00457048 -0.00880671 0.00656185)
(0.00557668 -0.0116883 0.0091869)
(0.00626337 -0.0130451 0.0190356)
(0.00824033 -0.0116991 0.0152881)
(0.00986864 -0.0112269 0.0154118)
(0.0112045 -0.0174519 0.0228169)
(0.00727652 -0.0160677 0.0173367)
(0.00979002 -0.0122759 0.0140885)
(0.00433151 -0.0142423 0.0139429)
(0.00715368 -0.0129964 0.0113271)
(0.00804548 -0.012442 0.0116664)
(-0.002567 -0.00163816 0.00430991)
(-0.00253235 -0.000969336 0.00418651)
(-0.00326164 -0.00255429 0.00291359)
(-0.00299814 -0.000767298 0.00412364)
(-0.00310482 -0.000197124 0.00386515)
(-0.00383108 -0.00174488 0.00269891)
(-0.00241503 -0.000111242 0.00306439)
(-0.00255737 0.000398996 0.00295021)
(-0.00298458 -0.00102585 0.00208431)
(0.0209864 0.0214716 0.0347475)
(0.0215587 0.0233966 0.0465296)
(0.021974 0.0208901 0.0374412)
(0.0234982 0.0167948 0.0371041)
(0.00339134 -0.00481378 0.00346401)
(0.00307852 -0.00322508 0.00416605)
(0.0226051 0.0297059 0.0496894)
(0.0261124 0.026255 0.041283)
(0.00312949 -0.00572619 0.0028398)
(0.024716 0.020362 0.0404896)
(0.00385638 -0.00334305 0.00390733)
(0.00328115 -0.00574347 0.00274634)
(0.00408965 -0.00578653 0.00431778)
(0.00393286 -0.00359971 0.00490437)
(0.0359918 0.0276141 0.0619577)
(0.00390674 -0.00652127 0.00357154)
(0.00481968 -0.00433156 0.00302074)
(0.0045611 -0.00246032 0.00367771)
(0.00462066 -0.00480804 0.00240469)
(0.00427854 -0.00319672 0.00407393)
(0.00355948 -0.00543765 0.00269458)
(0.00484809 -0.00347368 0.00444393)
(0.0042222 -0.00614018 0.00330166)
(0.00496464 -0.00289145 0.00421371)
(0.00448209 -0.00553916 0.00294669)
(0.00532984 -0.00240205 0.00318679)
(0.00480073 -0.0044015 0.00196731)
(0.00539785 -0.00194206 0.00301924)
(0.00494645 -0.00387331 0.00182193)
(0.00217611 -0.00836313 0.00715928)
(0.00167557 -0.00573077 0.00771019)
(0.00127632 -0.00933407 0.00470043)
(0.00159081 -0.00811708 0.00767761)
(0.000934842 -0.00624381 0.00859152)
(0.000735816 -0.00782743 0.00736636)
(0.00143285 -0.00631278 0.00882919)
(0.000289572 -0.00802623 0.00883373)
(-0.000198118 -0.00625204 0.0133282)
(0.000497011 -0.00615829 0.0158748)
(0.0018756 -0.00946764 0.0113351)
(-8.27952e-05 -0.00622747 0.00959587)
(0.000372586 -0.00433487 0.0107067)
(0.0312191 0.0204383 0.050632)
(0.00180382 -0.00676383 0.00960177)
(0.000761928 -0.00868292 0.00955725)
(0.00183326 -0.00627383 0.00536858)
(0.00137358 -0.00444638 0.00619745)
(0.00150773 -0.00753877 0.00425447)
(0.00264994 -0.00485343 0.00623633)
(0.0016649 -0.00763448 0.00419123)
(0.00226613 -0.00338891 0.00413834)
(0.00170478 -0.00557741 0.00307877)
(0.00285894 -0.00362124 0.00453597)
(0.00202285 -0.00583643 0.00289215)
(0.0379706 0.027266 0.0740901)
(0.00274012 -0.00604884 0.00498836)
(0.00240097 -0.00456661 0.00578748)
(0.00229136 -0.00625674 0.00425195)
(0.00318745 -0.00487077 0.00566957)
(0.00236103 -0.0074904 0.00419189)
(0.00145521 -0.00819969 0.00556416)
(0.0029702 -0.00696744 0.00597101)
(0.00290494 -0.00506588 0.00669927)
(0.00245492 -0.00670993 0.00474532)
(0.00299393 -0.0059414 0.00761675)
(0.0010405 -0.00897153 0.00512286)
(0.00121469 -0.00893196 0.00647615)
(0.00163384 -0.009697 0.00812862)
(0.00165311 -0.00701271 0.00962789)
(0.00214242 -0.00750959 0.0128139)
(0.00377349 -0.0064492 0.00847662)
(0.00330404 -0.00401441 0.0105685)
(0.00391032 -0.00497659 0.00626124)
(0.00301712 -0.00804516 0.00471528)
(0.00417742 -0.00421333 0.00572747)
(0.00373107 -0.00728514 0.0038866)
(0.000483989 -0.00791384 0.0111818)
(-0.00120684 -0.00700496 0.0126346)
(0.000919035 -0.0071886 0.0118661)
(0.00194768 -0.00495112 0.0140277)
(0.0012506 -0.0097153 0.0232999)
(0.00238842 -0.00461514 0.0217336)
(0.00369591 -0.00462153 0.00581019)
(0.00247024 -0.00724269 0.0041382)
(0.00321943 -0.00209432 0.000811487)
(0.00321941 -0.00074348 0.000819614)
(0.0370498 0.0392206 0.0693604)
(0.0356654 0.0320258 0.0542436)
(0.00318906 -0.00207552 0.000590999)
(0.00374772 -0.00126293 0.00121134)
(0.00365906 -0.00271228 0.000649252)
(0.00433723 -0.00114557 0.0015393)
(0.0040972 -0.00284238 0.000619416)
(0.0504251 0.0412766 0.0833289)
(0.00272571 -0.00220778 0.00261266)
(0.00219876 -0.00408734 0.00174329)
(0.00322616 -0.00244262 0.00291477)
(0.00263505 -0.0042414 0.00173399)
(0.00308465 -0.00150642 0.00139137)
(0.0560715 0.0517829 0.0961459)
(0.0472979 0.0455079 0.0727319)
(0.00265389 -0.00280136 0.000497949)
(0.00305566 -0.00296161 0.00103859)
(0.00373499 -0.00341561 0.00216405)
(0.00339206 -0.00174792 0.00277122)
(0.00353815 -0.00401324 0.00172639)
(0.0717404 0.060471 0.125037)
(0.00419209 -0.00216817 0.00257589)
(0.00382265 -0.00412345 0.00154041)
(0.00283477 -0.00117423 0.000654375)
(0.00273495 -0.00209051 -0.000146194)
(0.00352823 -0.0014037 0.000788515)
(0.00315052 -0.00184741 0.000306059)
(0.00324682 -0.000451973 0.000260562)
(0.00295801 -0.00193558 -0.000392221)
(0.00343134 -0.00105261 0.000521829)
(0.00343109 -0.00198483 -0.000439939)
(0.00391858 -0.00190139 0.000497627)
(0.00386787 -0.000396138 0.000502669)
(0.00368429 -0.00184959 2.44969e-05)
(0.00435532 -0.000928037 0.000908814)