/*--------------------------------*- C++ -*----------------------------------*\
| =========                 |                                                 |
| \\      /  F ield         | OpenFOAM: The Open Source CFD Toolbox           |
|  \\    /   O peration     | Version:  5.0                                   |
|   \\  /    A nd           | Web:      www.OpenFOAM.org                      |
|    \\/     M anipulation  |                                                 |
\*---------------------------------------------------------------------------*/
FoamFile
{
    version     2.0;
    format      ascii;
    class       volVectorField;
    location    "60";
    object      wallShearStressRest;
}
// * * * * * * * * * * * * * * * * * * * * * * * * * * * * * * * * * * * * * //

dimensions      [1 -1 -2 0 0 0 0];

internalField   uniform (0 0 0);

boundaryField
{
    Wall_Aorta
    {
        type            calculated;
        value           nonuniform List<vector> 
7045
(
(0.00463031 -0.00862454 0.0211144)
(0.00480798 -0.00777317 0.0222989)
(-0.000675213 -0.00762185 0.0189351)
(-0.00367399 -0.00769335 0.0234631)
(-0.00295572 -0.00727181 0.0227955)
(0.00173992 -0.00495383 0.0196902)
(-0.00679944 -0.00998157 0.0330321)
(-0.00871054 -0.0186568 0.0385815)
(0.278934 0.0233237 0.0465377)
(0.303007 -0.135348 0.0542397)
(0.339471 -0.0572742 0.0665487)
(0.0558875 0.0285333 -0.00815087)
(0.0445342 0.0190178 -0.00617426)
(0.0585257 0.0267672 -0.0127388)
(0.0433654 0.0220257 -0.0147788)
(0.0458415 0.0202215 -0.015092)
(0.000334312 0.00475514 -0.00130782)
(0.00077078 0.00483139 -0.00151788)
(0.00022293 0.0046684 -0.00138731)
(0.000502314 0.00491201 -0.00140561)
(0.000336988 0.0047287 -0.0015287)
(0.00045572 0.00458567 -0.0012781)
(0.000146493 0.00462532 -0.00156313)
(0.000911629 0.00490996 -0.00150933)
(0.000629963 0.00467402 -0.00170884)
(0.000835422 0.00478716 -0.00132234)
(0.00117514 0.00507722 -0.00120753)
(0.000766493 0.00513739 -0.000962157)
(0.00130762 0.00519271 -0.0011132)
(0.000999481 0.00484218 -0.00103754)
(0.000741434 0.00497739 -0.00106903)
(0.000336731 0.0046817 -0.000883197)
(0.000786204 0.00501739 -0.000958253)
(0.000485166 0.0045121 -0.00098903)
(0.00113233 0.00490949 -0.000672158)
(0.000980885 0.00493222 -0.00118823)
(0.00105152 0.00480882 -0.000469731)
(-0.000276273 0.00446144 -0.00134919)
(0.000147264 0.0048071 -0.0013903)
(-0.000409389 0.00427684 -0.00145319)
(-0.000147093 0.00406717 -0.00152936)
(-0.000369411 0.00408577 -0.00168642)
(0.000160241 0.00444282 -0.00116402)
(-0.00019229 0.00397527 -0.0010281)
(0.000176105 0.00433679 -0.00113301)
(-0.00022366 0.00399586 -0.00120033)
(-0.000377626 0.00376947 -0.00161321)
(-0.000572855 0.0038007 -0.00173719)
(-0.000583781 0.00335486 -0.00175779)
(-0.00089641 0.00354376 -0.00197067)
(-0.000103868 0.0035965 -0.00119685)
(-0.000334288 0.0036168 -0.00144139)
(-0.000390985 0.00330905 -0.0014038)
(-0.000613748 0.00324983 -0.00156476)
(0.000544977 0.0042779 -0.000793253)
(0.000364251 0.00429117 -0.00121715)
(0.000295795 0.00395415 -0.000864776)
(0.000612172 0.00422504 -0.000127831)
(0.0011062 0.00475984 -0.000336675)
(0.000730963 0.00417682 -0.000412398)
(0.000764212 0.00377939 -0.0003284)
(0.000639634 0.003791 -0.000617564)
(-2.81672e-05 0.00347465 -0.000923142)
(-0.00022065 0.00313197 -0.00100696)
(0.000389804 0.00327204 -0.000261686)
(0.000335197 0.003342 -0.000770939)
(8.45002e-05 0.00290199 -0.000529632)
(1.05179e-05 0.00295068 -0.00092437)
(0.00157822 0.00503215 -0.00100832)
(0.00141659 0.00497612 -0.00139798)
(0.00158615 0.00548317 -0.000413271)
(0.00193797 0.00545435 -0.00037652)
(0.00155524 0.00562103 0.00036197)
(0.0022358 0.00558134 -0.000165866)
(0.00181329 0.00532987 -0.000234398)
(0.00108914 0.00504804 9.96196e-05)
(0.00176801 0.00552126 -0.00033751)
(0.00141415 0.00484468 -0.000270695)
(0.00158178 0.00483167 6.22522e-05)
(0.00146621 0.00462866 -0.000401399)
(0.00218712 0.00524929 0.000421891)
(0.00207521 0.00506817 0.00123616)
(0.00202917 0.00580439 0.00059421)
(0.00285387 0.00550861 -0.000105073)
(0.00223549 0.00534121 -0.000169079)
(0.00279811 0.00568598 0.000793021)
(0.00340229 0.0060503 0.00108782)
(0.00322842 0.00624702 0.00223475)
(0.00265388 0.00574213 0.00178792)
(0.00200322 0.00499208 0.00242541)
(0.00282532 0.00535375 0.00201245)
(0.00254939 0.00474133 0.00161609)
(0.00280392 0.00590436 0.00352491)
(0.00352325 0.00615178 0.00266565)
(0.00326877 0.00547615 0.00242511)
(0.00349508 0.0050261 0.00427808)
(0.00134737 0.00420445 0.000418714)
(0.00104149 0.00372055 0.000452071)
(0.00135377 0.00395682 0.00156325)
(0.00207203 0.00467505 0.00128523)
(0.00181478 0.00397451 0.000898052)
(0.00141916 0.00335084 0.00128815)
(0.00158547 0.00326234 0.000653755)
(0.000492033 0.00291439 0.000647691)
(0.000878106 0.0033916 0.000508586)
(0.000693101 0.00301414 0.000106871)
(0.00053983 0.00250521 0.000301599)
(0.000465708 0.00258828 -0.000202503)
(0.00129362 0.00278112 0.001123)
(0.000872049 0.00220855 0.00124874)
(0.00256268 0.00395618 0.00234094)
(0.00208543 0.00309576 0.00287271)
(0.00302488 0.00417595 0.00435078)
(0.00176736 0.00262968 0.00265668)
(0.00242138 0.00287747 0.00534744)
(0.0030318 0.00331178 0.00455113)
(0.00309452 0.00304945 0.0035647)
(0.00117629 0.00158092 0.00269663)
(0.00159039 0.00204456 0.00260166)
(0.00153557 0.00188436 0.0016064)
(0.00228179 0.00184176 0.00450608)
(0.00283924 0.00177942 0.00344635)
(0.00232013 0.00107701 0.00390633)
(-0.000998244 0.00307419 -0.00199465)
(-0.00120505 0.00277242 -0.00223561)
(-0.000565201 0.0029811 -0.00157686)
(-0.000809609 0.00300846 -0.00171575)
(-0.000792883 0.00266459 -0.0018279)
(-0.00101785 0.00270381 -0.00194587)
(-0.00141371 0.00240987 -0.00244877)
(-0.00138978 0.00213904 -0.0024384)
(-0.00143696 0.00251019 -0.00228897)
(-0.00174804 0.00212519 -0.00267274)
(-0.000918901 0.00234777 -0.00209267)
(-0.00133309 0.00247007 -0.00229391)
(-0.00137805 0.00203945 -0.00242956)
(-0.000609888 0.00270634 -0.00101465)
(-0.000378259 0.00315296 -0.000936115)
(-0.000683097 0.00278779 -0.00129258)
(-0.000568878 0.00241128 -0.0013512)
(-0.000869055 0.00246504 -0.00162852)
(-0.000235823 0.00258835 -0.000758218)
(-0.000512089 0.00222572 -0.00105226)
(4.44291e-05 0.00522977 -0.00045233)
(-0.000821775 0.00536019 -0.00048832)
(-0.000549951 0.00498174 -0.000829184)
(-0.000742916 0.00518067 -0.000390785)
(-0.00177749 0.00488103 -0.000538107)
(-0.00145691 0.00477793 -0.00109064)
(-0.000328873 0.00518848 -0.000426561)
(-0.00129688 0.00523234 -0.000596527)
(-0.000971042 0.00486433 -0.000865678)
(-0.000799891 0.00570913 -0.000377572)
(-0.00126377 0.00585003 -0.000204666)
(-0.00101362 0.00590892 -0.000131848)
(-0.000978892 0.00565815 -0.000164622)
(-0.00198472 0.0051588 -0.000503173)
(-0.00123274 0.00588536 0.000146547)
(-0.00227764 0.00541055 -0.000115402)
(-0.000755304 0.00216005 -0.0016473)
(-0.00140182 0.00621921 -1.68875e-05)
(-0.00110153 0.00220881 -0.00184358)
(-0.00124234 0.00611803 -0.000212102)
(-0.000910245 0.00181832 -0.0018995)
(-0.00175752 0.00639098 0.000249211)
(-0.00127872 0.00189818 -0.00206324)
(-0.00153489 0.00651525 2.71581e-05)
(-0.000732357 0.00194926 -0.00141588)
(-0.00125878 0.00618364 0.000471188)
(-0.00256721 0.00602736 0.000238222)
(-0.00094519 0.00161414 -0.00174667)
(-0.00149146 0.00586404 0.000740181)
(-0.0026353 0.00550008 0.000772716)
(-0.00229897 0.00538835 0.000129991)
(-0.00234682 0.0065558 0.000885467)
(-0.00205377 0.00639472 0.000300208)
(-0.00135652 0.0018197 -0.00273254)
(-0.00171727 0.00649977 0.000649522)
(-0.00185042 0.00184613 -0.00293936)
(-0.00224069 0.00695214 0.000684407)
(-0.00074548 0.00569838 0.000259376)
(-0.00220434 0.0064463 0.000548584)
(-0.00173946 0.00590291 3.71926e-05)
(-0.001457 0.00149917 -0.0029529)
(-0.00196274 0.00632086 0.00136028)
(-0.00198938 0.00151232 -0.00312173)
(-0.00276373 0.00542151 0.00106056)
(-0.00255532 0.00581062 0.000937048)
(-0.0025854 0.00667382 0.001237)
(-0.00205338 0.00653615 0.00168318)
(-0.0014826 0.0017233 -0.00271341)
(-0.00323177 0.00665554 0.0021461)
(-0.00240121 0.00683871 0.00111609)
(-0.00102303 0.00575691 0.000442967)
(-0.0023288 0.00616282 0.000604105)
(-0.00265561 0.00706309 0.001584)
(-0.0015935 0.00138453 -0.00294686)
(-0.00110066 0.0059137 0.000816231)
(-0.00245773 0.00615335 0.00104861)
(-0.00204636 0.00672459 0.00230639)
(-0.00301464 0.00654967 0.00238163)
(-0.00207652 0.00693123 0.00311423)
(-0.00151499 0.00128688 -0.0031593)
(-0.00307554 0.00655453 0.00327565)
(-0.00207417 0.00123731 -0.00331897)
(-0.00257283 0.0071501 0.00208728)
(-0.00112844 0.00597768 0.00119678)
(-0.00235361 0.00614787 0.00145195)
(-0.00264208 0.00738133 0.00277167)
(-0.00137213 0.000948656 -0.00336222)
(-0.00171414 0.000959427 -0.00329859)
(-0.00203733 0.000976271 -0.00348831)
(-0.00130664 0.00609205 0.00188887)
(-0.00245596 0.00616158 0.00198633)
(-0.0018358 0.00596033 0.00218385)
(-0.000287993 0.00565569 -0.000414556)
(-0.00163111 0.0011363 -0.00317313)
(-0.000349742 0.00542619 -0.000762661)
(4.10974e-05 0.00557825 -0.000500017)
(-2.34188e-05 0.00550676 -0.000769784)
(0.000453073 0.00567654 -0.000603826)
(0.000398896 0.00553082 -0.00076521)
(-0.00174891 0.000859589 -0.0034261)
(0.000366168 0.005432 -0.000830845)
(0.000987677 0.00583575 -0.000673317)
(0.000565393 0.00528585 -0.00109897)
(-0.000452168 0.00572816 -0.000400658)
(-0.000100604 0.0055828 -0.000494643)
(-0.000730908 0.00584705 -0.000265627)
(-0.000337408 0.00569502 -0.000554336)
(0.000359671 0.00558102 -0.00069961)
(0.000836998 0.00546629 -0.000933607)
(0.000145216 0.0054921 -0.000585834)
(0.000576549 0.00536897 -0.000891467)
(0.00121083 0.00550925 -0.00113636)
(0.00142683 0.0054405 -0.00107393)
(0.00130635 0.00507876 -0.00138567)
(0.00205369 0.00528084 -0.00113573)
(0.00171751 0.00503366 -0.00151687)
(0.00114944 0.00521911 -0.00092033)
(0.00174999 0.00510892 -0.00145806)
(0.00146571 0.00487482 -0.00155079)
(0.00237901 0.00479307 -0.00119184)
(0.00192452 0.0046522 -0.00201028)
(-0.000885231 0.00578744 -8.84961e-05)
(-0.000326594 0.00574656 -0.000185648)
(-0.000129055 0.00529006 -0.000316604)
(-0.00135068 0.00619717 -3.70097e-05)
(-0.00112656 0.00551599 -0.000471916)
(-0.00103171 0.00152805 -0.00220424)
(-0.000403737 0.00521625 -0.000461629)
(-0.00142157 0.00161862 -0.00238401)
(-0.000661144 0.00534841 -0.000845194)
(-0.00113924 0.00124149 -0.00249131)
(0.000798582 0.00517232 -0.000773247)
(-0.0015531 0.00130225 -0.00262055)
(-1.5601e-05 0.00569436 -0.000376011)
(-0.00110563 0.00131763 -0.00210784)
(0.000166593 0.00518 -0.000681899)
(-0.000192125 0.00522352 -0.000970594)
(-0.00124701 0.00103042 -0.00245422)
(0.000473563 0.00553436 -0.000942943)
(0.000111227 0.00497693 -0.00119321)
(-8.93888e-05 0.00533945 -0.000692951)
(0.000298388 0.00532863 -0.000910641)
(-0.000264642 0.0053827 -0.000216122)
(-0.00166339 0.00621405 -0.000134779)
(-0.000581273 0.00542463 -0.00041093)
(-0.00120144 0.00571004 -3.91213e-05)
(-0.000767603 0.00562309 -0.000260237)
(-0.000170586 0.00536914 -0.000458397)
(0.000154686 0.00523678 -0.000752076)
(-0.000353553 0.00549066 -0.000351531)
(-2.5194e-05 0.00532614 -0.000566119)
(0.001141 0.00525583 -0.00109849)
(0.00147671 0.00478236 -0.00124233)
(0.000512959 0.00513003 -0.00102843)
(0.000838789 0.00495625 -0.00129534)
(0.000401672 0.00462914 -0.0010593)
(0.00124204 0.00500037 -0.000938112)
(0.000892614 0.00448847 -0.00155377)
(0.00206538 0.00483249 -0.00131681)
(0.001675 0.00449027 -0.00156939)
(0.00257871 0.00423212 -0.00110957)
(0.00225039 0.00428709 -0.00190468)
(0.00164646 0.00508556 -0.00136589)
(0.00220041 0.0043873 -0.00123078)
(-0.0011762 0.00103322 -0.0027775)
(0.000529417 0.00500831 -0.000902075)
(-0.00161096 0.0010252 -0.00282573)
(0.000993693 0.00483896 -0.00108365)
(-0.00111848 0.000773235 -0.00308471)
(-0.00142286 0.000812746 -0.00302259)
(-0.00166958 0.000827372 -0.00300296)
(0.000348527 0.00506532 -0.000621034)
(-0.00129596 0.00079249 -0.00282668)
(0.000678117 0.00487157 -0.000766702)
(0.00069933 0.00470461 -0.00110502)
(-0.0014856 0.000571087 -0.00284442)
(0.00158024 0.00475669 -0.000841524)
(0.00115904 0.00460276 -0.00147046)
(0.00181286 0.00471058 -0.00115338)
(0.00117342 0.00486522 -0.000909554)
(0.000762921 0.00453051 -0.00081696)
(0.00162063 0.00418609 -0.000798084)
(0.00131303 0.00436744 -0.00132874)
(-0.00117487 0.00580995 0.000269397)
(-0.000806327 0.0056612 1.90646e-05)
(-0.00130506 0.00603021 0.000589281)
(-0.000955679 0.00577699 0.000385456)
(-0.000415054 0.00550861 -8.28166e-05)
(-0.000144655 0.00540634 -0.000311651)
(-0.00055369 0.00559735 0.00023332)
(-0.000316005 0.00549886 4.66089e-05)
(-0.00134236 0.00611225 0.000979993)
(-0.000957385 0.00581678 0.000789793)
(-0.00154435 0.00620829 0.00148344)
(-0.00109527 0.00595988 0.00128801)
(-0.000555559 0.00562524 0.000564963)
(-0.000324675 0.00556651 0.000374417)
(-0.0007209 0.00569197 0.000993375)
(-0.000524295 0.00568232 0.000838321)
(0.000283911 0.00520233 -0.000405364)
(0.000562993 0.00489704 -0.000491349)
(9.56015e-05 0.00533284 -0.000106754)
(0.000412399 0.00495614 -0.000243063)
(0.000913977 0.0048491 -0.000598743)
(0.000823108 0.00445909 -0.000661012)
(0.00174105 0.00433709 -0.000234502)
(0.000716907 0.00483156 -0.000238234)
(0.00113306 0.00463506 -0.000342955)
(4.41609e-05 0.00534229 0.000224767)
(0.000219213 0.00212987 -2.563e-05)
(0.000261027 0.00503145 6.60001e-05)
(0.000120938 0.0022734 -0.000426487)
(-0.000116654 0.00543877 0.000669347)
(9.32456e-05 0.00509262 0.000552202)
(0.000637818 0.00481612 6.48366e-05)
(0.0009522 0.00459461 -1.88737e-05)
(-4.19757e-05 0.00175401 -0.000411711)
(0.000482642 0.00480676 0.000467163)
(-0.000200687 0.00191899 -0.000769625)
(0.000813951 0.00453969 0.000398524)
(0.00178895 0.00408576 -0.00128521)
(0.00273405 0.00399706 -0.000810143)
(0.0023605 0.00391108 -0.00178476)
(0.000482548 0.00177796 0.00072373)
(0.00231218 0.004053 -0.00100553)
(0.00204199 0.00392789 -0.000902371)
(0.00318076 0.00371071 -0.000685158)
(0.00265589 0.00382483 -0.00121759)
(0.00191877 0.00445085 -0.000685548)
(0.000166889 0.00140752 0.000195081)
(0.00190645 0.00371945 -0.000686264)
(0.0029452 0.00370161 -0.000288396)
(0.00177395 0.00424594 -0.000429656)
(0.00191742 0.00357723 -0.000174824)
(0.00296864 0.00384159 0.000403637)
(0.00082531 0.00414149 -0.000230422)
(0.00176721 0.00357035 -0.000208938)
(0.00130686 0.00391292 -0.000825711)
(0.00209739 0.00410617 7.45879e-05)
(0.00236492 0.00395885 0.000644078)
(0.00351697 0.00405164 0.0014043)
(0.00268771 0.00402586 0.000188155)
(0.000877117 0.00405722 1.40619e-05)
(0.00175354 0.00365407 0.000225768)
(0.00190993 0.00408407 0.000505524)
(0.000736012 0.00400435 0.000416428)
(0.00164847 0.00370585 0.000551506)
(0.00179454 0.00411453 0.00100983)
(0.00229711 0.00395315 0.00116754)
(0.00342159 0.00438541 0.00213781)
(0.0021913 0.0040353 0.00187379)
(0.00330735 0.00461266 0.00304527)
(0.00457349 -0.00148212 0.000252234)
(0.00444712 -0.000340714 0.000431512)
(0.00445418 -0.00143547 3.59955e-05)
(0.00528262 -0.000774813 0.000364374)
(0.0049263 -0.00155205 0.000102067)
(0.00557854 -0.000757124 0.000957754)
(0.00546733 -0.00157978 0.000284037)
(0.00614463 -0.000575509 0.00120565)
(0.00601392 -0.00158971 0.000585804)
(0.00663662 -0.000522083 0.00141117)
(0.00652629 -0.00146439 0.000688845)
(-0.000257734 0.00149865 -0.000787634)
(0.00707662 -0.000336407 0.00157164)
(-0.000469584 0.0016721 -0.00110319)
(0.00694158 -0.00131688 0.000849448)
(0.00753308 -0.000190375 0.00167385)
(0.00733892 -0.0011516 0.00095705)
(0.00778909 2.82807e-05 0.00169117)
(-0.000476057 0.00118321 -0.00120069)
(0.00754644 -0.000852623 0.00114216)
(-0.000736253 0.00134146 -0.00144862)
(0.00795942 0.000162902 0.00155291)
(0.00762165 -0.000536653 0.00102846)
(0.00809323 0.000671466 0.00134419)
(0.00786806 1.94137e-05 0.00109951)
(-0.000103128 0.00112647 -0.000286421)
(0.00818127 0.000882454 0.00152618)
(0.00789907 0.000413391 0.00114457)
(0.00754866 6.78326e-05 0.000548422)
(-0.00096407 0.000877599 0.000708654)
(-0.0011302 0.00115562 0.000531606)
(-0.000404993 0.000817905 -0.000859898)
(-0.00137183 0.000526607 0.000232836)
(-0.00127465 0.00151395 0.000387433)
(-0.0015358 0.00169207 0.000409979)
(-0.00163266 0.000931205 0.000221062)
(-0.00157753 0.000282979 0.000748811)
(-0.00130741 -0.00416337 0.00496695)
(-0.000880705 -0.003141 0.00512795)
(-0.00185473 -0.00525372 0.00384595)
(-0.000411891 -0.00962397 0.00865749)
(-0.000204403 -0.00766542 0.0100383)
(0.00085744 -0.00819742 0.0125598)
(0.00233468 -0.00727447 0.00946513)
(0.00230065 -0.00483665 0.0107991)
(0.000542473 -0.0040109 0.00370202)
(0.000587974 -0.0030433 0.00420796)
(0.000378676 -0.00434765 0.00310836)
(0.00171678 -0.00401051 0.00331519)
(0.00170323 -0.00298439 0.00389359)
(0.00164353 -0.00431671 0.0029227)
(0.00175147 -0.00330418 0.00436346)
(0.000849554 -0.00541678 0.00328787)
(0.00103096 -0.00589126 0.00397266)
(-0.00115912 -0.00584678 0.00653703)
(-0.00112345 -0.00470931 0.00700589)
(-0.00169416 -0.0069477 0.00610122)
(0.000362934 -0.00543576 0.00774576)
(-0.00154296 -0.00913476 0.00659402)
(-0.000323084 -0.00434719 0.00438203)
(8.17028e-05 -0.00297337 0.00465852)
(-0.00054287 -0.00529449 0.00345401)
(-0.000290509 -0.00593054 0.00455197)
(0.000698887 -0.0067234 0.00629838)
(0.000533626 -0.0047555 0.0069916)
(0.00035597 -0.00864818 0.00570491)
(0.00174718 -0.00485591 0.00677978)
(0.000454101 -0.008299 0.00527856)
(0.000693631 -0.000795617 0.000377956)
(0.000779629 -0.000255498 0.000574773)
(0.000780234 -0.00107691 -9.18088e-05)
(0.0014074 -0.00214372 0.00123418)
(0.00143913 -0.00115513 0.00151316)
(0.0012973 -0.00258388 0.000926339)
(0.00217019 -0.00316565 0.00204554)
(0.00218767 -0.00198052 0.0024518)
(0.00211832 -0.00377051 0.00171414)
(0.00243052 -0.00222873 0.000965746)
(0.00234407 -0.00116627 0.00120867)
(0.00240874 -0.00253877 0.000661762)
(0.00221879 -0.00149225 0.00159198)
(0.0017621 -0.00275766 0.000828613)
(0.00272765 -0.00198247 0.000307816)
(0.00295713 -0.000898749 0.000353191)
(0.0025766 -0.00194921 5.58758e-05)
(0.00242295 -0.00155675 0.000136765)
(0.00227688 -0.000779001 0.000447668)
(0.00234341 -0.00163841 -0.000345527)
(0.00316975 -0.00139483 0.000435489)
(0.00163902 -0.00170098 0.000492255)
(0.00189516 -0.000775836 0.000522797)
(0.00160048 -0.00185749 0.000214134)
(0.00102137 -0.00150916 0.000789122)
(0.00107472 0.000948808 0.0020737)
(0.00118311 -0.000752368 0.00105186)
(0.0011241 0.00120703 0.00117417)
(0.00107193 -0.00170124 0.00026017)
(0.000769043 0.000517818 0.00140887)
(0.0012745 -0.00121557 0.00022173)
(0.000775059 0.00088452 0.000617464)
(0.00143453 -0.000494351 0.00034157)
(0.00174232 0.000275709 0.00313274)
(0.00135231 -0.00130389 -0.000183435)
(0.00202255 -0.00106875 0.000453351)
(0.00129539 -0.000218328 0.00228438)
(0.00241465 -0.0012509 0.000722281)
(0.00207477 -0.00194049 1.03993e-05)
(0.000426413 0.000240507 0.000708189)
(-8.35932e-05 -0.00212163 0.00225404)
(0.000364245 0.000606719 0.000111134)
(0.00020388 -0.0011847 0.0023505)
(0.000161128 -1.74051e-05 -1.88003e-05)
(-0.00018405 -0.00281191 0.00168599)
(8.86876e-06 0.00031225 -0.000490941)
(-0.00121359 -0.00162314 0.00321951)
(0.000827754 -0.000505067 0.00137088)
(-0.00114354 -0.000963598 0.00324561)
(-0.00177468 -0.00241943 0.00243145)
(0.000463129 -0.000749983 0.000506893)
(-0.000673711 -0.00316284 0.00367265)
(-0.000290319 -0.00223148 0.00385989)
(-0.000920241 -0.00411017 0.00282225)
(-0.0013275 -0.0028788 0.00417039)
(-0.00111967 -0.00210368 0.00423569)
(-0.00186833 -0.00378418 0.00318351)
(-0.000676598 -0.00194511 0.00288076)
(-0.000473698 -0.00111382 0.00291676)
(-0.000993652 -0.00265563 0.00219099)
(-0.000353637 -0.000523854 0.00127296)
(-0.000363285 -8.38447e-05 0.00131677)
(-0.000747342 -0.000888054 0.000896681)
(-7.24774e-05 -5.69316e-05 0.000341452)
(-4.79205e-06 0.000413455 0.000336834)
(-0.00021225 -0.000430711 -5.63245e-05)
(-0.000580673 0.000322709 0.000590406)
(-0.000595471 0.000764942 0.000467805)
(-0.000706713 -5.71398e-05 6.17249e-05)
(0.000353508 -0.00130953 0.00116668)
(0.00053906 -0.000613426 0.00124587)
(0.000391128 -0.00167893 0.000510692)
(0.000154124 -0.000512802 0.00158786)
(-0.000402066 -0.00156355 0.00108532)
(0.00041605 -8.64148e-06 0.000567222)
(0.000108397 -0.000796745 0.000114385)
(-0.00106125 2.32694e-05 0.00158754)
(-0.000902137 0.00033936 0.00141466)
(-0.00119247 -0.000670644 0.00109138)
(-0.00100864 -0.00136608 0.00171688)
(-0.00123451 -0.000112734 0.00200612)
(-0.00154926 -0.00099333 0.00149691)
(0.00104786 -0.00314606 0.00238686)
(0.0010514 -0.00198195 0.00273652)
(-0.000597418 0.000916209 -0.00160985)
(0.00085962 -0.00384057 0.00206046)
(-0.000932032 0.00106792 -0.00180916)
(0.000264699 -0.00327347 0.00310258)
(0.000483666 -0.00217994 0.00341032)
(-5.87702e-05 -0.00403489 0.00254861)
(0.000750159 -0.00212309 0.00163918)
(-0.000736464 0.00071805 -0.00204511)
(0.000869786 -0.00114287 0.001903)
(-0.0011077 0.000802544 -0.00213639)
(0.00063454 -0.00267936 0.00120062)
(0.00197438 -0.00232254 0.00289581)
(0.001218 -0.00392749 0.00203467)
(-0.00326708 -0.00342654 0.00633554)
(-0.000572075 0.000534254 -0.00138907)
(-0.0028343 -0.00208318 0.00622751)
(-0.00377801 -0.00493279 0.00941203)
(-0.00121862 -0.00417302 0.00924892)
(-9.63959e-05 -0.00498691 0.0187902)
(0.000144994 -0.00410237 0.0173433)
(0.00277746 -0.00577124 0.0154265)
(0.00557125 -0.00773841 0.0206468)
(-0.000772189 0.000335383 -0.00175621)
(-0.00171303 -5.02753e-05 0.0024359)
(-0.00208496 0.000305736 0.00241863)
(-0.00247726 -0.000851732 0.00161691)
(-0.00223331 -0.000519338 0.00350437)
(-0.00254135 -0.000238432 0.00332443)
(-0.00308896 -0.0012743 0.00223769)
(-0.00207423 -0.00115291 0.00395287)
(-0.00324387 -0.00260878 0.00272955)
(-0.00164889 0.000945707 0.00201544)
(-0.00211263 0.00124525 0.00178816)
(-0.00250012 0.000372069 0.00126761)
(-0.00161065 0.000814493 0.0022442)
(-0.00256917 -0.000244937 0.00134335)
(-0.00158936 0.00202755 0.000728734)
(-0.00193934 0.00231633 0.000378477)
(-0.00188865 0.00167244 -0.000129798)
(-0.00147934 0.000304024 0.00186173)
(-0.0016753 0.000698802 0.00184796)
(-0.00187161 -0.000283463 0.00105351)
(-0.00169341 0.00113388 0.00140683)
(-0.00208124 0.00134535 0.00128721)
(-0.00199776 0.000594264 0.000443178)
(-0.00155809 0.00161316 0.000786668)
(-0.00183338 0.000911655 0.00026261)
(-0.0014327 0.00186388 0.00101994)
(-0.00206189 0.00215477 0.000708737)
(-0.00198337 0.00159775 0.000177382)
(-0.00109226 0.00256294 0.00039327)
(-0.00182688 0.00279327 0.000353241)
(-0.00161329 0.00214592 7.3504e-05)
(-0.00197505 0.00147464 0.000567416)
(-0.000696986 0.000511904 -0.00240506)
(-0.00100984 0.000682718 -0.00247046)
(-0.0011514 0.000610389 -0.00242801)
(-0.00142713 0.00265146 0.000266742)
(-0.00124038 0.000491586 -0.00295565)
(-0.00212094 0.00293131 0.0002093)
(-0.00183762 0.00226445 -0.000212113)
(-0.00166166 0.00300832 0.000425634)
(-0.00096955 0.00320104 0.000426705)
(-0.00173641 0.00370944 9.5011e-05)
(-0.000889026 0.000310879 -0.0023057)
(-0.00159324 0.00304251 -0.000287621)
(-0.00091591 0.00361705 0.000396983)
(-0.00155294 0.00322171 -0.000165421)
(-0.000286225 0.00312897 0.00150015)
(-0.00131485 0.00367375 0.00134943)
(-0.000682887 0.000234955 -0.00263628)
(-0.00148813 0.00297304 0.000682866)
(-0.00121619 0.000182548 -0.0028017)
(-0.000501019 0.00353586 0.000763424)
(-0.00124754 0.00315893 5.33246e-05)
(-0.000426295 0.00369244 0.00105898)
(-0.00129943 0.00136236 0.00213958)
(-0.00199339 0.00198032 0.00188263)
(-0.00236687 0.00103557 0.00107148)
(-0.00137276 0.00164159 0.00247102)
(-0.00265665 0.000624287 0.0016448)
(-0.00212648 -0.000423525 0.00385323)
(-0.00263208 0.00035899 0.0034985)
(-0.00340122 -0.00143724 0.00250359)
(-0.00195775 -0.000969015 0.00515391)
(-0.00359574 -0.00324678 0.00479051)
(-0.000897499 0.00101688 0.00348454)
(-0.00298424 -0.000318884 0.00290824)
(-0.000900361 0.0014286 0.0033606)
(-0.00168943 0.00269714 0.00290251)
(-0.00226175 0.000894184 0.00367413)
(-0.00354257 -0.00148514 0.00643603)
(-0.00207747 -0.00317741 0.00820231)
(-0.00525179 -0.00826555 0.0137446)
(0.000624073 -0.00345944 0.0120417)
(0.00225672 -0.00524309 0.0259867)
(0.00124184 -0.00419982 0.024517)
(-0.00122307 0.00276287 0.000759818)
(-0.00185758 0.00227627 0.000310547)
(-0.000950638 0.00283655 0.00109934)
(-0.00190195 0.00233238 0.000425218)
(-0.000699493 0.00244828 0.00170601)
(-0.00178747 0.00205449 0.000649999)
(-0.0022782 -0.0028267 0.00487998)
(-0.00239201 -0.00220636 0.00494646)
(-0.00328919 -0.00306341 0.00335883)
(-0.00228239 -0.0056085 0.00730025)
(-0.0018266 -0.00444615 0.00758834)
(-0.00286193 -0.00785961 0.00753673)
(-0.00346289 -0.0044789 0.00774009)
(-0.00263388 -0.00402266 0.00783747)
(-0.00424347 -0.00640556 0.0084971)
(-0.00324212 -0.00854762 0.0123342)
(-0.0020241 -0.00366601 0.00519201)
(-0.0017869 -0.00286569 0.00536559)
(-0.000589441 5.92676e-05 -0.00164175)
(-0.00275021 -0.00484497 0.00380822)
(-0.00161106 -0.00482042 0.0102411)
(-0.00414986 -0.00398714 0.0112222)
(0.000738748 -0.00629054 0.0223239)
(0.000396042 -0.00442432 0.0196386)
(-0.00249453 -0.00217335 0.00505441)
(-0.00248972 -0.0013464 0.00471198)
(-0.0031814 -0.00345624 0.00349732)
(-0.00411734 -0.00533029 0.00541351)
(-0.00197525 -0.00335546 0.00596419)
(-0.00317248 -0.00437457 0.00544762)
(-0.00313731 -0.00671986 0.0105583)
(-0.00129409 -0.00489398 0.0172928)
(-0.00360605 -0.00940618 0.0225819)
(-0.000600227 -0.00922609 0.0107075)
(-0.00118381 -0.00658149 0.0106169)
(0.002787 -0.00271211 0.01522)
(-0.000119622 -0.00802599 0.0131714)
(-0.00257902 -0.00733044 0.0150212)
(0.000785755 -0.00670165 0.0243856)
(0.00166694 -0.00196696 0.0214992)
(0.000918345 -0.00892007 0.0218548)
(0.0005205 -0.00595216 0.0204645)
(0.00547135 -0.00603619 0.0184726)
(0.00765967 -0.0058131 0.0231149)
(-0.00234186 -0.00975379 0.00865982)
(0.00334917 -0.00553112 0.0164444)
(0.00669751 -0.00628647 0.0220932)
(-0.000676601 -0.000120673 -0.00218612)
(-0.00220925 -0.00678403 0.0159898)
(-0.000815037 -0.000189082 -0.00246973)
(-0.000638135 -0.000493622 -0.00255926)
(-3.04573e-05 -0.000116731 -0.000694531)
(-0.000274526 0.000122877 -0.0010659)
(-0.00024012 0.000114202 -0.000988246)
(0.000107931 -0.000733949 -0.00037379)
(-1.14146e-05 -0.000713577 -0.00109257)
(-0.000350343 -0.000442728 -0.00146659)
(-0.00015286 -0.000717968 -0.00165477)
(-0.000325218 -0.00047911 -0.00196245)
(-0.000435682 -0.000478117 -0.00183777)
(-0.00184485 -0.00243725 0.00424728)
(-0.00179272 -0.00176267 0.00430594)
(-0.00259588 -0.00327833 0.00304257)
(-0.00218382 -0.0016641 0.0039238)
(-0.00226801 -0.00108604 0.00389516)
(-0.00306474 -0.00255376 0.00268636)
(-0.00164908 -0.000943748 0.00296995)
(-0.00175418 -0.00042987 0.00302093)
(-0.00224894 -0.0018042 0.00217715)
(0.00387425 0.00693201 0.0025501)
(0.00348632 0.00699182 0.00442637)
(0.00435919 0.00648667 0.00313254)
(0.004021 0.0060807 0.00290803)
(0.00327565 -0.00444554 0.00325477)
(0.00296603 -0.00296165 0.00383317)
(0.00392204 0.00779616 0.00480351)
(0.00550166 0.00690559 0.00372982)
(0.00296189 -0.00529107 0.0027847)
(0.00460113 0.00641421 0.00329705)
(0.00355751 -0.00312009 0.00370975)
(0.00299778 -0.00537474 0.00278608)
(0.0034053 -0.00544847 0.00436122)
(0.00327991 -0.00341267 0.00480706)
(0.00617812 0.0078126 0.00682935)
(0.00317141 -0.00622194 0.00371431)
(0.00430965 -0.00393526 0.00288237)
(0.00410373 -0.00224636 0.0033906)
(0.00405263 -0.00440141 0.00240918)
(0.00384565 -0.00301345 0.00399073)
(0.00306486 -0.00515622 0.00287449)
(0.00403249 -0.00329021 0.00442169)
(0.00337111 -0.00586534 0.00347205)
(0.00408536 -0.00278857 0.0042209)
(0.0035609 -0.00535275 0.00312119)
(0.00472255 -0.00219701 0.00298517)
(0.00415903 -0.00404536 0.00201739)
(0.00472904 -0.00180105 0.00286663)
(0.00423315 -0.00359192 0.00190382)
(0.00176994 -0.00824152 0.00727217)
(0.00124601 -0.00567972 0.00781298)
(0.000840078 -0.00925985 0.00484511)
(0.00142289 -0.00815461 0.00778315)
(0.000779651 -0.00632256 0.00869694)
(0.000548484 -0.00788657 0.00747046)
(0.00118869 -0.0063493 0.00895442)
(6.02703e-05 -0.00806371 0.00894328)
(-0.000356174 -0.00630314 0.0133754)
(0.000319477 -0.00620359 0.0159165)
(0.00158146 -0.00942398 0.0114237)
(-0.000453685 -0.00621387 0.00970066)
(9.37616e-05 -0.00431743 0.0107328)
(0.00501194 0.00672298 0.00515331)
(0.00149544 -0.00676016 0.00971352)
(0.000468684 -0.00869318 0.00968377)
(0.00182898 -0.0062499 0.00541834)
(0.00135074 -0.00446393 0.00619462)
(0.00141559 -0.00750512 0.00440908)
(0.00250815 -0.00480713 0.00625375)
(0.00146023 -0.00754596 0.00435)
(0.00234172 -0.00335383 0.00401287)
(0.00176915 -0.00545108 0.00312038)
(0.00282655 -0.00349412 0.00440206)
(0.00195853 -0.00562833 0.00298409)
(0.00604277 0.00753576 0.00910471)
(0.00254506 -0.00579673 0.00493384)
(0.00219178 -0.00435776 0.00563507)
(0.00203457 -0.00600715 0.00434379)
(0.00278148 -0.00468516 0.00564902)
(0.00196205 -0.00727203 0.00433987)
(0.0011394 -0.00812586 0.00573087)
(0.0021908 -0.00677938 0.00616487)
(0.00213829 -0.00497213 0.00678779)
(0.00169602 -0.00655686 0.00490406)
(0.00236038 -0.00587353 0.0078083)
(0.000425321 -0.00888549 0.00533496)
(0.000515275 -0.00887583 0.00666229)
(0.000937298 -0.00955651 0.00822448)
(0.000958823 -0.00691575 0.00965422)
(0.00158717 -0.00741435 0.0128582)
(0.00291468 -0.0063835 0.00853494)
(0.00267133 -0.00396321 0.0106193)
(0.00301461 -0.00486101 0.00636889)
(0.00219121 -0.00788255 0.00483455)
(0.00321992 -0.0041722 0.00583487)
(0.00279768 -0.0071914 0.00400153)
(-3.7197e-06 -0.00787195 0.0113278)
(-0.00153568 -0.00698939 0.0126854)
(0.00036307 -0.00712952 0.0119781)
(0.00157017 -0.00494066 0.0140765)
(0.000911523 -0.00966559 0.0233591)
(0.00208801 -0.00457669 0.021765)
(0.0031101 -0.00445765 0.00589698)
(0.00183468 -0.00707205 0.00444771)
(0.00327095 -0.00190886 0.000615033)
(0.00325928 -0.00069273 0.000589231)
(0.00632373 0.00940138 0.0078919)
(0.00728028 0.0079518 0.00559659)
(0.0032429 -0.00181764 0.000524436)
(0.00367851 -0.00112682 0.000899235)
(0.00362192 -0.00235079 0.000493233)
(0.00420575 -0.00102841 0.00121972)
(0.00399927 -0.0024942 0.00052508)
(0.00863972 0.0102294 0.0101618)
(0.00283345 -0.00217787 0.00241523)
(0.00234904 -0.00388997 0.00172985)
(0.00324109 -0.0023164 0.00268001)
(0.00264125 -0.00396354 0.00172889)