/*--------------------------------*- C++ -*----------------------------------*\
| =========                 |                                                 |
| \\      /  F ield         | OpenFOAM: The Open Source CFD Toolbox           |
|  \\    /   O peration     | Version:  5.0                                   |
|   \\  /    A nd           | Web:      www.OpenFOAM.org                      |
|    \\/     M anipulation  |                                                 |
\*---------------------------------------------------------------------------*/
FoamFile
{
    version     2.0;
    format      ascii;
    class       volScalarField;
    location    "60";
    object      FFRHyper;
}
// * * * * * * * * * * * * * * * * * * * * * * * * * * * * * * * * * * * * * //

dimensions      [0 0 0 0 0 0 0];

internalField   nonuniform List<scalar> 
36177
(
0.999098
0.999121
0.998987
0.998846
0.998692
0.998522
0.998456
0.998505
0.998693
0.998837
0.998979
0.998999
0.999116
0.999146
0.999217
0.999201
0.999085
0.998948
0.998804
0.998649
0.998498
0.99836
0.998312
0.998311
0.998357
0.998274
0.998295
0.998144
0.998192
0.998198
0.99821
0.999474
0.999455
0.999376
0.999336
0.999259
0.999284
0.999352
0.999353
0.999373
0.999389
0.999356
0.999243
0.999266
0.999215
0.999107
0.998941
0.998888
0.998705
0.998557
0.998417
0.998256
0.998118
0.998116
0.998149
0.998291
0.998438
0.998575
0.998739
0.9989
0.998902
0.998902
0.998956
0.998905
0.998658
0.998626
0.998435
0.998275
0.99811
0.997948
0.997789
0.997767
0.997832
0.998001
0.998151
0.998312
0.99847
0.998624
0.998637
0.998628
0.998659
0.998614
0.998421
0.99817
0.998109
0.997872
0.997701
0.997503
0.997334
0.997156
0.997135
0.997168
0.997431
0.997602
0.997792
0.997964
0.998149
0.998135
0.998088
0.998135
0.998062
0.99783
0.997553
0.997499
0.997274
0.997131
0.996962
0.996854
0.996752
0.996734
0.996674
0.996841
0.996966
0.997159
0.997332
0.997523
0.997498
0.997471
0.997526
0.997469
0.997267
0.997038
0.997054
0.996909
0.996841
0.996723
0.996628
0.99654
0.996444
0.996433
0.996403
0.996511
0.996586
0.99667
0.996779
0.996874
0.997008
0.996999
0.997019
0.997052
0.997053
0.996946
0.996769
0.996832
0.99669
0.996607
0.996507
0.996398
0.996262
0.996276
0.996281
0.99639
0.996486
0.996579
0.996657
0.996757
0.99677
0.996769
0.996764
0.996805
0.996644
0.996552
0.996423
0.996309
0.99616
0.996036
0.99575
0.99575
0.995797
0.996043
0.996173
0.996157
0.996139
0.99629
0.996268
0.9964
0.99639
0.996504
0.996561
0.996546
0.996713
0.996693
0.996874
0.99692
0.997179
0.997291
0.997512
0.997686
0.997656
0.997743
0.997884
0.99804
0.998027
0.998103
0.998172
0.9982
0.998167
0.998179
0.998148
0.99826
0.998429
0.998661
0.998866
0.999043
0.999185
0.999285
0.999307
0.999392
0.999401
0.999375
0.999399
0.999284
0.999236
0.999136
0.999158
0.998951
0.99892
0.998919
0.99864
0.9986
0.998403
0.998355
0.998101
0.998021
0.99781
0.997789
0.997491
0.997446
0.99725
0.997238
0.997052
0.997048
0.996956
0.99691
0.996712
0.996769
0.996599
0.996475
0.996352
0.996051
0.996023
0.995831
0.995671
0.995448
0.995451
0.995522
0.995764
0.995923
0.996061
0.995997
0.99581
0.995873
0.995826
0.995601
0.995436
0.995245
0.995116
0.994894
0.994939
0.994927
0.995159
0.995362
0.995124
0.995103
0.995154
0.995389
0.99545
0.995785
0.995808
0.995779
0.996131
0.996129
0.99608
0.996249
0.996372
0.996354
0.996492
0.99646
0.99654
0.996722
0.996725
0.996776
0.996972
0.997221
0.997322
0.997394
0.997685
0.997787
0.997857
0.998058
0.998119
0.998148
0.998076
0.997991
0.997947
0.999525
0.999522
0.999486
0.99947
0.99948
0.999496
0.999429
0.999459
0.999426
0.999295
0.999263
0.999327
0.999202
0.999188
0.998932
0.9989
0.998875
0.998584
0.998563
0.998577
0.998321
0.998275
0.998029
0.997962
0.997969
0.997734
0.997717
0.997433
0.997413
0.997431
0.99718
0.997209
0.99699
0.997022
0.996987
0.996834
0.996828
0.996712
0.996514
0.996519
0.996329
0.996196
0.995981
0.995644
0.995618
0.995398
0.995204
0.994971
0.994735
0.994517
0.994355
0.994468
0.994436
0.994745
0.994779
0.994735
0.994759
0.995153
0.995187
0.995161
0.995433
0.995794
0.995798
0.995774
0.996109
0.996079
0.996181
0.996222
0.996303
0.996355
0.996444
0.996437
0.996486
0.996594
0.996776
0.996765
0.997012
0.99702
0.997284
0.997363
0.997492
0.99774
0.997867
0.99801
0.9981
0.998161
0.998146
0.998163
0.998076
0.997975
0.99953
0.999534
0.999525
0.999526
0.999525
0.999495
0.999509
0.999546
0.99952
0.99958
0.999517
0.99944
0.99939
0.999479
0.99942
0.999265
0.999051
0.998948
0.998764
0.998526
0.998443
0.998336
0.998048
0.997998
0.997978
0.997923
0.997792
0.997533
0.997461
0.997448
0.997421
0.997224
0.996988
0.996957
0.996976
0.996945
0.996849
0.996629
0.996616
0.996627
0.996425
0.996211
0.996217
0.99615
0.995783
0.995722
0.995409
0.995202
0.995198
0.99491
0.994601
0.994298
0.994177
0.994001
0.993881
0.993724
0.993786
0.993765
0.993976
0.994331
0.994416
0.994306
0.994344
0.994815
0.994832
0.994795
0.995182
0.995156
0.995345
0.995405
0.995391
0.995567
0.995761
0.995912
0.995986
0.99599
0.996101
0.996189
0.996305
0.996411
0.996419
0.996494
0.996604
0.996787
0.996778
0.996774
0.99704
0.997061
0.997025
0.997257
0.997355
0.9975
0.997728
0.997848
0.997868
0.998142
0.998168
0.998238
0.99829
0.99828
0.998188
0.998023
0.999503
0.999521
0.9995
0.999518
0.999517
0.999475
0.999513
0.999519
0.999523
0.999504
0.999512
0.999517
0.999484
0.999435
0.999506
0.999565
0.999678
0.999499
0.999754
0.999635
0.999503
0.999193
0.998651
0.998459
0.998222
0.997894
0.998042
0.998069
0.998018
0.997812
0.997547
0.997549
0.997502
0.997287
0.997047
0.997008
0.996973
0.996804
0.996597
0.996611
0.996587
0.996382
0.996073
0.996055
0.996041
0.996064
0.995939
0.995639
0.995217
0.995214
0.995211
0.995001
0.994767
0.99463
0.994283
0.99406
0.993707
0.993645
0.993498
0.99345
0.993388
0.99349
0.993476
0.993574
0.993635
0.993756
0.993593
0.993398
0.993485
0.993378
0.993184
0.993223
0.993228
0.993249
0.993302
0.993208
0.993459
0.99361
0.993386
0.993468
0.993908
0.993858
0.993884
0.99444
0.994434
0.994357
0.994381
0.994595
0.994789
0.994962
0.995022
0.995011
0.9952
0.995366
0.995605
0.995751
0.995834
0.995981
0.996213
0.996281
0.996279
0.99626
0.996382
0.996582
0.996612
0.9966
0.996585
0.99675
0.997009
0.997006
0.99707
0.997306
0.997596
0.99765
0.997779
0.998125
0.998231
0.998239
0.99841
0.99842
0.998412
0.998398
0.998203
0.999286
0.999354
0.999419
0.999468
0.999373
0.999444
0.999453
0.9994
0.999289
0.999414
0.999441
0.999385
0.999328
0.999459
0.999505
0.999337
0.999166
0.99915
0.999237
0.998988
0.998859
0.998943
0.998979
0.999446
0.999581
0.99968
0.999605
0.999802
0.999845
0.999729
0.999526
0.999083
0.998446
0.99838
0.99818
0.997899
0.997779
0.99803
0.998368
0.998887
0.998551
0.998128
0.997886
0.99768
0.997666
0.997594
0.997731
0.99765
0.997779
0.998035
0.998306
0.998694
0.999091
0.999434
0.999621
0.999737
0.999629
0.999581
0.999513
0.999372
0.999475
0.999167
0.998888
0.998574
0.99832
0.998394
0.998368
0.998407
0.99838
0.99847
0.998338
0.998681
0.999296
0.999299
0.999109
0.998699
0.99857
0.998604
0.998608
0.99871
0.998527
0.998359
0.998262
0.998152
0.998054
0.999158
0.999226
0.999122
0.999204
0.999232
0.999311
0.99923
0.999105
0.999178
0.999058
0.999178
0.99923
0.999018
0.99884
0.998716
0.998734
0.99837
0.998281
0.998022
0.997856
0.997834
0.997798
0.997668
0.997499
0.997398
0.997776
0.997149
0.99705
0.997067
0.997539
0.99845
0.998657
0.998898
0.99835
0.998123
0.998278
0.998166
0.998153
0.998097
0.997961
0.999124
0.999112
0.999013
0.999055
0.998941
0.999018
0.999047
0.998932
0.998986
0.998819
0.998862
0.998945
0.998976
0.998851
0.998672
0.998694
0.998686
0.998438
0.998406
0.998287
0.998096
0.99797
0.997869
0.997713
0.997508
0.997344
0.997191
0.997144
0.997017
0.997026
0.996962
0.996971
0.997089
0.997443
0.998008
0.99788
0.997853
0.998059
0.998014
0.998115
0.998087
0.998074
0.997954
0.999036
0.998924
0.998814
0.998907
0.998786
0.998814
0.998882
0.998751
0.99878
0.998639
0.998661
0.998494
0.998462
0.998426
0.998213
0.998167
0.998036
0.997811
0.997748
0.997653
0.997577
0.997462
0.99732
0.99717
0.997039
0.996937
0.996883
0.996899
0.996902
0.996845
0.996934
0.997029
0.997186
0.997357
0.997509
0.997617
0.99774
0.997727
0.997531
0.997473
0.997357
0.997223
0.997074
0.996927
0.996839
0.996792
0.996795
0.996775
0.996827
0.996807
0.996957
0.996915
0.996951
0.996932
0.99705
0.997164
0.997467
0.997484
0.997479
0.997803
0.997798
0.997977
0.997955
0.998068
0.998088
0.998024
0.998014
0.99889
0.99898
0.998871
0.998769
0.998649
0.99869
0.998601
0.99845
0.998553
0.998644
0.998699
0.998549
0.998608
0.998455
0.998503
0.998341
0.998333
0.998288
0.99829
0.998061
0.998095
0.997844
0.997831
0.99765
0.99761
0.997524
0.997442
0.997353
0.997275
0.997102
0.996946
0.996823
0.996731
0.996663
0.996692
0.99666
0.996671
0.996759
0.996859
0.996915
0.996997
0.996974
0.997091
0.997214
0.997263
0.997294
0.997383
0.997553
0.997574
0.997774
0.997808
0.997946
0.998053
0.998086
0.998155
0.998167
0.998219
0.998699
0.998803
0.998685
0.998774
0.998665
0.998536
0.998426
0.99825
0.9983
0.998413
0.998518
0.998479
0.998273
0.998437
0.998281
0.998296
0.998234
0.997955
0.998005
0.997836
0.997859
0.997689
0.997668
0.997751
0.997558
0.997565
0.997615
0.99747
0.997439
0.997302
0.997208
0.997045
0.996892
0.996739
0.996623
0.99656
0.996528
0.996551
0.996545
0.996511
0.996592
0.996654
0.996773
0.996938
0.997097
0.997292
0.997359
0.997165
0.997074
0.996877
0.996706
0.996576
0.996471
0.996352
0.99633
0.996288
0.996138
0.996319
0.996621
0.996723
0.996846
0.996868
0.996977
0.996994
0.997038
0.997013
0.997116
0.997121
0.997158
0.997298
0.99733
0.997534
0.997638
0.997844
0.997981
0.998099
0.998119
0.998199
0.998292
0.998363
0.998741
0.998844
0.998932
0.99901
0.998901
0.998795
0.998706
0.998706
0.998788
0.998671
0.998577
0.99857
0.998455
0.998307
0.998123
0.997956
0.997745
0.997782
0.997663
0.997693
0.99755
0.997564
0.997621
0.997466
0.997537
0.997512
0.997482
0.997444
0.997382
0.997321
0.997363
0.997178
0.997069
0.996834
0.996617
0.996415
0.996198
0.995958
0.995668
0.995456
0.995794
0.995622
0.995949
0.996201
0.996435
0.996672
0.996903
0.997146
0.997218
0.996962
0.996829
0.996476
0.996102
0.995711
0.995358
0.994744
0.994519
0.994782
0.995513
0.995722
0.996282
0.996471
0.996674
0.996816
0.997106
0.996983
0.997051
0.997031
0.99701
0.997017
0.997042
0.997095
0.997108
0.99716
0.997205
0.997185
0.997333
0.997554
0.997601
0.997809
0.997993
0.998057
0.998192
0.998268
0.99838
0.998471
0.998579
0.998473
0.998573
0.998451
0.998303
0.998124
0.997895
0.998049
0.998116
0.998287
0.998065
0.998086
0.997901
0.997684
0.997595
0.997442
0.997524
0.99755
0.997383
0.997377
0.997453
0.997469
0.997594
0.997455
0.997456
0.997387
0.997546
0.997347
0.997279
0.997287
0.996874
0.996729
0.996237
0.995618
0.994712
0.99393
0.993287
0.992684
0.992629
0.993388
0.994201
0.994722
0.9943
0.993345
0.993776
0.993066
0.992176
0.991515
0.990842
0.990549
0.991088
0.992276
0.991855
0.992658
0.99295
0.992988
0.994911
0.995629
0.996213
0.996552
0.996689
0.996835
0.996927
0.997024
0.997145
0.997277
0.997389
0.997457
0.99747
0.997458
0.997467
0.997413
0.997441
0.997541
0.997496
0.997525
0.997565
0.997531
0.997621
0.997419
0.997485
0.99714
0.99696
0.996122
0.995936
0.994907
0.993846
0.992515
0.992051
0.991065
0.990573
0.989905
0.989196
0.988718
0.989473
0.990138
0.989835
0.990178
0.989893
0.991866
0.991853
0.992722
0.994438
0.996086
0.996678
0.996741
0.997285
0.997316
0.997182
0.997054
0.997008
0.997002
0.99701
0.997066
0.997063
0.997013
0.99702
0.997035
0.997118
0.997144
0.997219
0.997233
0.997393
0.997395
0.99743
0.997677
0.997886
0.997953
0.998128
0.998211
0.998354
0.998359
0.998469
0.998562
0.998437
0.998268
0.998073
0.997862
0.997894
0.997678
0.997849
0.997664
0.997565
0.997442
0.99749
0.997297
0.997285
0.997301
0.997346
0.997471
0.997426
0.99749
0.997543
0.997638
0.99766
0.997779
0.997841
0.997657
0.997731
0.997273
0.995714
0.994692
0.99434
0.992701
0.990234
0.990152
0.989642
0.989756
0.989209
0.98873
0.988224
0.987882
0.987319
0.987138
0.987192
0.988503
0.988236
0.98971
0.989733
0.990328
0.990716
0.993237
0.99529
0.998417
0.998052
0.997727
0.99758
0.996916
0.997013
0.996967
0.997009
0.996977
0.996888
0.996861
0.996947
0.996931
0.996869
0.996971
0.996981
0.997089
0.99722
0.99725
0.997368
0.997426
0.997507
0.997773
0.997848
0.998037
0.99804
0.998148
0.997923
0.997735
0.997713
0.997834
0.99762
0.997477
0.997506
0.997377
0.997262
0.997201
0.997191
0.997213
0.997224
0.997307
0.997356
0.99738
0.997377
0.997375
0.997443
0.997588
0.997652
0.997842
0.997791
0.998102
0.998335
0.998282
0.997485
0.998674
0.997557
0.995499
0.99365
0.990839
0.991573
0.993849
0.996315
0.998848
0.997879
0.997267
0.997528
0.997581
0.996808
0.996685
0.996729
0.996663
0.996781
0.996801
0.996814
0.996859
0.996811
0.996779
0.996847
0.996836
0.996796
0.996864
0.996837
0.996868
0.996996
0.997117
0.997136
0.997279
0.997358
0.997502
0.997566
0.997546
0.997397
0.997574
0.997353
0.997279
0.997139
0.997329
0.997218
0.997168
0.997181
0.997214
0.997255
0.997298
0.997277
0.997263
0.997283
0.997249
0.997354
0.997433
0.997711
0.997799
0.998036
0.998164
0.998511
0.998994
0.999081
0.998952
0.999032
0.998852
0.998484
0.998119
0.997792
0.997804
0.997313
0.997265
0.99726
0.997171
0.997038
0.996965
0.997082
0.996696
0.996597
0.996672
0.996739
0.996647
0.996686
0.996668
0.996717
0.996696
0.99678
0.996751
0.996827
0.996811
0.996817
0.996776
0.996838
0.996845
0.996807
0.996849
0.996863
0.996851
0.996878
0.996908
0.996891
0.997017
0.997045
0.997186
0.997261
0.997085
0.997053
0.997071
0.997034
0.997097
0.997151
0.997201
0.997242
0.99722
0.997166
0.997203
0.997147
0.99709
0.997174
0.997182
0.997271
0.997268
0.997287
0.997021
0.99702
0.996867
0.996866
0.99702
0.996669
0.996558
0.996557
0.99643
0.996429
0.996561
0.99667
0.996523
0.99649
0.996521
0.996456
0.996634
0.996707
0.996682
0.996772
0.996747
0.996792
0.99681
0.996774
0.996838
0.996875
0.99686
0.99691
0.996843
0.996874
0.996889
0.996921
0.996952
0.996947
0.996925
0.996938
0.996949
0.997066
0.997026
0.997067
0.997116
0.997138
0.997143
0.997128
0.997076
0.997092
0.997019
0.996859
0.996949
0.996946
0.996998
0.997008
0.996912
0.99694
0.996631
0.996648
0.996553
0.996542
0.996497
0.996552
0.996354
0.996276
0.996251
0.99604
0.995981
0.996108
0.996293
0.996095
0.996388
0.996296
0.996352
0.996589
0.996552
0.996736
0.996738
0.996686
0.996751
0.996775
0.996813
0.996853
0.996809
0.996897
0.996872
0.996912
0.996947
0.996977
0.996909
0.99695
0.997025
0.997043
0.997111
0.997141
0.997151
0.997138
0.997112
0.996982
0.996956
0.996756
0.996682
0.996335
0.996457
0.996619
0.996635
0.996502
0.996505
0.996292
0.996299
0.996253
0.996238
0.996186
0.996186
0.996237
0.995956
0.995982
0.995993
0.99577
0.995797
0.995864
0.995927
0.995758
0.995748
0.995725
0.99601
0.995861
0.995921
0.996299
0.99625
0.996259
0.996554
0.996548
0.996535
0.996585
0.99663
0.996813
0.996857
0.996875
0.996913
0.996962
0.996954
0.997016
0.997046
0.996995
0.997024
0.997042
0.997042
0.997021
0.997068
0.997082
0.997073
0.996981
0.996964
0.996912
0.996808
0.997019
0.996912
0.99671
0.996427
0.996233
0.996031
0.996142
0.996148
0.996171
0.996176
0.996175
0.995955
0.995942
0.995856
0.995828
0.995838
0.995814
0.995806
0.995605
0.995661
0.995486
0.995534
0.995576
0.995615
0.995547
0.99561
0.99561
0.995567
0.995526
0.99548
0.995782
0.995681
0.995744
0.996218
0.996248
0.996474
0.99651
0.996549
0.996595
0.996684
0.996739
0.996899
0.99693
0.996997
0.996958
0.996976
0.996965
0.996962
0.99691
0.996787
0.996624
0.996629
0.996631
0.996382
0.996197
0.996025
0.996004
0.995666
0.995825
0.995846
0.995862
0.99558
0.995598
0.995545
0.995524
0.995505
0.995483
0.99555
0.995642
0.995412
0.995402
0.995483
0.995416
0.995499
0.995531
0.995537
0.995434
0.995438
0.99545
0.995493
0.995486
0.995464
0.995449
0.995442
0.995432
0.995432
0.995446
0.995471
0.995456
0.995316
0.995437
0.995473
0.995477
0.995304
0.995291
0.995296
0.995359
0.995368
0.995363
0.995348
0.995419
0.995457
0.995325
0.995405
0.995447
0.995239
0.995283
0.995435
0.995501
0.995528
0.995447
0.995529
0.995467
0.995434
0.99537
0.995538
0.995449
0.995395
0.99565
0.995682
0.995798
0.995837
0.996269
0.996318
0.996364
0.996466
0.9967
0.996732
0.99656
0.996328
0.996278
0.996244
0.996035
0.995903
0.995889
0.995882
0.995976
0.996127
0.995858
0.995655
0.995421
0.995307
0.995218
0.995125
0.995222
0.995235
0.995255
0.995125
0.995142
0.995104
0.995262
0.99526
0.995264
0.995253
0.995311
0.995419
0.995157
0.99521
0.995234
0.995162
0.995247
0.994929
0.99485
0.995073
0.99534
0.995452
0.99551
0.995434
0.995507
0.995493
0.995488
0.995399
0.995283
0.995456
0.995433
0.995383
0.995391
0.995706
0.99573
0.995891
0.995968
0.99595
0.996275
0.995887
0.995675
0.995544
0.995408
0.995161
0.99515
0.995086
0.994994
0.99506
0.994809
0.994941
0.994946
0.994753
0.994765
0.994742
0.994981
0.994961
0.995
0.995073
0.995224
0.99523
0.994893
0.994957
0.994631
0.994495
0.994078
0.994421
0.99472
0.995113
0.995112
0.995409
0.995466
0.995414
0.995363
0.995284
0.995327
0.995263
0.995349
0.995289
0.99524
0.995178
0.995419
0.99538
0.995402
0.995401
0.9956
0.995768
0.995877
0.995694
0.995769
0.995624
0.99542
0.995302
0.995198
0.995144
0.995146
0.995074
0.995032
0.995087
0.995145
0.994998
0.994906
0.994753
0.994642
0.994432
0.994643
0.994647
0.994585
0.994425
0.994472
0.994437
0.994682
0.994665
0.994682
0.994765
0.994945
0.994894
0.99434
0.994311
0.994492
0.993852
0.993751
0.993295
0.993681
0.994078
0.994369
0.994401
0.99493
0.994717
0.994645
0.995163
0.995361
0.995413
0.995332
0.995278
0.995205
0.995211
0.995171
0.995264
0.995206
0.995322
0.995288
0.995324
0.995308
0.995169
0.99526
0.995011
0.995031
0.994768
0.994753
0.994526
0.994435
0.994246
0.994176
0.993955
0.994167
0.994159
0.993874
0.99391
0.993847
0.993747
0.993661
0.993569
0.993543
0.993751
0.993039
0.992967
0.992293
0.992598
0.993054
0.993644
0.993683
0.994265
0.994023
0.993963
0.994587
0.994325
0.994329
0.99489
0.994878
0.994872
0.994853
0.994843
0.994865
0.995177
0.995079
0.995102
0.995092
0.994996
0.994997
0.994902
0.994745
0.994617
0.99442
0.994376
0.994216
0.99404
0.994036
0.993984
0.993748
0.993587
0.993759
0.993736
0.993649
0.993462
0.993449
0.993345
0.993266
0.993169
0.993002
0.99292
0.993105
0.992347
0.992108
0.991476
0.991627
0.991799
0.992328
0.992529
0.993408
0.993095
0.993145
0.993918
0.993632
0.993648
0.994212
0.994212
0.994301
0.994859
0.994831
0.994797
0.994778
0.994876
0.994837
0.994644
0.994498
0.994574
0.994413
0.994158
0.994189
0.994088
0.993958
0.993668
0.993666
0.993513
0.993273
0.993282
0.99332
0.9934
0.993105
0.993048
0.992847
0.992645
0.992394
0.99228
0.992326
0.991749
0.991519
0.990958
0.990812
0.990841
0.990947
0.990922
0.990957
0.990915
0.990813
0.991238
0.991668
0.992089
0.992474
0.992788
0.992985
0.993173
0.99306
0.99316
0.992942
0.993123
0.993127
0.993097
0.992959
0.992543
0.99244
0.992212
0.992002
0.991683
0.991495
0.990948
0.990846
0.990593
0.9905
0.990504
0.990618
0.990757
0.99127
0.991426
0.991882
0.992027
0.992241
0.993028
0.992778
0.992861
0.993548
0.993621
0.993694
0.993757
0.994222
0.99429
0.994299
0.994276
0.99415
0.99417
0.99415
0.9938
0.993778
0.993681
0.993392
0.993451
0.993351
0.993186
0.993141
0.993246
0.993377
0.993034
0.992863
0.992906
0.992903
0.993128
0.992843
0.992801
0.992293
0.992544
0.992522
0.99256
0.992318
0.991893
0.991762
0.991536
0.991251
0.991192
0.991033
0.990694
0.990675
0.990023
0.990128
0.990062
0.989942
0.989804
0.989843
0.989913
0.989934
0.989976
0.989917
0.990287
0.990646
0.991018
0.99135
0.991608
0.991929
0.991945
0.992008
0.991476
0.991787
0.99179
0.991805
0.991488
0.991397
0.991142
0.99079
0.990368
0.990348
0.990107
0.989859
0.989979
0.98978
0.989822
0.98972
0.9896
0.989566
0.989609
0.989652
0.989703
0.989698
0.989856
0.990105
0.990389
0.990698
0.99097
0.991158
0.991167
0.99126
0.990814
0.990918
0.990991
0.99088
0.99066
0.990723
0.990442
0.990177
0.989992
0.989832
0.98987
0.989771
0.989836
0.989677
0.989688
0.989599
0.989478
0.989461
0.989547
0.989607
0.989637
0.989744
0.989927
0.990162
0.990362
0.990563
0.990728
0.990769
0.990841
0.990495
0.990544
0.99044
0.990161
0.990072
0.989944
0.990055
0.989901
0.989895
0.989907
0.989886
0.989915
0.989848
0.989723
0.989637
0.989561
0.989452
0.989449
0.989509
0.989381
0.989491
0.989455
0.989583
0.98996
0.990046
0.990405
0.99097
0.991116
0.991398
0.99197
0.991922
0.992144
0.992792
0.992998
0.993021
0.993132
0.99369
0.993798
0.993872
0.994254
0.994284
0.99411
0.994148
0.99402
0.994127
0.994374
0.994512
0.994686
0.994411
0.994276
0.994087
0.993964
0.993703
0.993563
0.993589
0.993418
0.993242
0.993307
0.993227
0.993099
0.992972
0.992949
0.992817
0.992481
0.992542
0.992444
0.99235
0.992437
0.992538
0.992548
0.992798
0.992877
0.992965
0.993335
0.993291
0.99337
0.993323
0.993217
0.993389
0.99331
0.993192
0.99302
0.992886
0.992879
0.99255
0.992672
0.992675
0.992585
0.992201
0.992105
0.992031
0.991614
0.991703
0.991657
0.991641
0.991162
0.991066
0.991113
0.991057
0.991429
0.991489
0.991762
0.992234
0.992245
0.992666
0.992706
0.993165
0.993169
0.993013
0.992899
0.993098
0.992898
0.992991
0.992744
0.992588
0.992567
0.992532
0.992442
0.992308
0.992312
0.992524
0.992328
0.991986
0.991761
0.991477
0.99145
0.991429
0.991309
0.991049
0.99085
0.991009
0.990529
0.990441
0.990386
0.990605
0.990738
0.990811
0.990529
0.990295
0.990302
0.990382
0.990468
0.990091
0.990123
0.989955
0.99
0.989975
0.98996
0.989926
0.989875
0.989885
0.989867
0.989813
0.989726
0.989586
0.989568
0.989621
0.989669
0.989755
0.98985
0.989867
0.989866
0.98987
0.989906
0.989937
0.989921
0.989843
0.989771
0.989807
0.989833
0.989862
0.989841
0.989958
0.989873
0.989924
0.989822
0.989866
0.989783
0.98972
0.989616
0.989599
0.989662
0.989722
0.989803
0.989781
0.989774
0.989773
0.989766
0.989754
0.98971
0.989711
0.989891
0.989795
0.990107
0.990217
0.989933
0.990112
0.990056
0.989795
0.989794
0.989656
0.989619
0.989783
0.989725
0.989833
0.989834
0.989852
0.989846
0.98986
0.989922
0.989857
0.989936
0.98987
0.989802
0.98971
0.989623
0.989578
0.989488
0.989492
0.989511
0.989569
0.989498
0.989456
0.989425
0.989463
0.989356
0.989379
0.989407
0.989356
0.989454
0.989468
0.989887
0.989851
0.989845
0.990298
0.991014
0.991302
0.991595
0.991663
0.992178
0.992401
0.992421
0.992439
0.9923
0.992209
0.992139
0.992101
0.991718
0.991223
0.991219
0.991572
0.991095
0.991135
0.991174
0.991095
0.990741
0.99076
0.990347
0.990293
0.990339
0.990516
0.990519
0.990427
0.990328
0.990192
0.990195
0.99068
0.991169
0.991237
0.991915
0.991929
0.992018
0.992331
0.992364
0.991807
0.991737
0.991163
0.991661
0.991652
0.99188
0.991806
0.991373
0.990952
0.990955
0.990505
0.990514
0.990241
0.989812
0.989925
0.9897
0.989798
0.989911
0.990014
0.989764
0.989888
0.989791
0.989681
0.989558
0.989599
0.989699
0.989704
0.989811
0.99005
0.990137
0.990081
0.989898
0.989819
0.989738
0.989901
0.989945
0.98954
0.989483
0.989624
0.989619
0.989723
0.989675
0.989784
0.989797
0.989803
0.989864
0.989833
0.989802
0.989878
0.989829
0.989895
0.989872
0.989843
0.989748
0.989727
0.989771
0.989782
0.989848
0.989833
0.989832
0.989815
0.989779
0.989727
0.989695
0.989653
0.98961
0.989581
0.989639
0.989617
0.989695
0.989679
0.989769
0.989631
0.989639
0.989637
0.989691
0.989727
0.989756
0.989804
0.98987
0.989892
0.989857
0.989805
0.989737
0.989723
0.989739
0.989678
0.989606
0.98961
0.989619
0.989569
0.989533
0.989461
0.98941
0.989335
0.989317
0.989358
0.98922
0.989283
0.989353
0.989422
0.98948
0.989833
0.989997
0.990145
0.990647
0.990593
0.9905
0.990834
0.990877
0.99095
0.990533
0.990082
0.990224
0.990453
0.990149
0.990258
0.990407
0.990259
0.990094
0.990272
0.990033
0.990101
0.989957
0.989854
0.989707
0.9898
0.989943
0.989645
0.989581
0.989507
0.989432
0.98959
0.989542
0.98941
0.98948
0.98933
0.989428
0.989643
0.989487
0.989659
0.989709
0.989936
0.990223
0.990296
0.990815
0.990655
0.990351
0.990428
0.989969
0.990289
0.990313
0.989744
0.989908
0.989756
0.989544
0.989464
0.989457
0.989372
0.989418
0.989493
0.98958
0.989657
0.989515
0.989529
0.989509
0.989579
0.98959
0.989639
0.989633
0.989535
0.989577
0.989533
0.989494
0.989487
0.989547
0.989591
0.989628
0.98974
0.989761
0.989878
0.989947
0.98997
0.989882
0.989862
0.989846
0.989776
0.989818
0.989789
0.989759
0.989707
0.98967
0.989651
0.989633
0.98961
0.989577
0.989664
0.989603
0.989581
0.989588
0.989598
0.989565
0.989458
0.989412
0.9894
0.989402
0.98943
0.989459
0.98953
0.989621
0.989717
0.989819
0.989944
0.990015
0.98999
0.989956
0.989915
0.98989
0.989909
0.989875
0.989847
0.989816
0.98977
0.989709
0.989669
0.989603
0.989548
0.989505
0.989401
0.989352
0.989245
0.989346
0.989352
0.989255
0.9893
0.989356
0.989378
0.989268
0.989332
0.989344
0.989391
0.989431
0.989457
0.989513
0.989534
0.989549
0.989669
0.989653
0.989579
0.989601
0.9895
0.98951
0.989401
0.989422
0.989322
0.989227
0.989314
0.989327
0.989363
0.989362
0.989462
0.989582
0.989613
0.989499
0.989531
0.989417
0.98948
0.989616
0.98947
0.989612
0.989537
0.989671
0.989647
0.989718
0.989756
0.989792
0.989738
0.989667
0.98963
0.989639
0.989682
0.98963
0.989536
0.989549
0.989398
0.989363
0.989235
0.989241
0.989222
0.989207
0.989198
0.989242
0.989326
0.989432
0.989651
0.989823
0.989975
0.990082
0.990066
0.990002
0.989967
0.989953
0.989933
0.989889
0.98988
0.989848
0.989791
0.989793
0.989733
0.989688
0.989651
0.989604
0.989628
0.989575
0.989449
0.989468
0.989437
0.989414
0.989456
0.989524
0.989591
0.989536
0.98961
0.989643
0.989627
0.98967
0.989612
0.989712
0.989673
0.989609
0.98956
0.989511
0.989347
0.989323
0.989202
0.98917
0.989161
0.98911
0.989078
0.989104
0.989135
0.989162
0.989228
0.989296
0.989329
0.989469
0.989618
0.989844
0.989914
0.989858
0.989673
0.989495
0.989313
0.989314
0.989295
0.989282
0.989266
0.989256
0.989283
0.989334
0.989308
0.989312
0.989311
0.989183
0.989203
0.98911
0.989083
0.989129
0.989115
0.98905
0.989026
0.989037
0.98909
0.989139
0.989182
0.989266
0.989325
0.989431
0.98946
0.989691
0.989833
0.990231
0.990279
0.990052
0.989938
0.989853
0.989737
0.989708
0.989778
0.989928
0.989932
0.989938
0.989975
0.990039
0.990158
0.990165
0.990159
0.990114
0.990029
0.989939
0.989871
0.989824
0.989783
0.98975
0.989689
0.989642
0.989634
0.989653
0.989758
0.989792
0.989732
0.989752
0.989684
0.989677
0.989613
0.989522
0.989499
0.989578
0.989573
0.989647
0.989698
0.989685
0.989675
0.989723
0.989712
0.989638
0.989533
0.989491
0.989492
0.989476
0.989529
0.989616
0.989732
0.98985
0.98991
0.98985
0.989844
0.989799
0.98973
0.98966
0.989713
0.989775
0.989831
0.989875
0.989861
0.989812
0.989756
0.989678
0.989722
0.989799
0.98985
0.989893
0.989885
0.989879
0.989896
0.989921
0.989915
0.989901
0.989936
0.989927
0.989901
0.989928
0.98991
0.989889
0.989881
0.989939
0.989944
0.989956
0.989805
0.989624
0.989495
0.98941
0.989339
0.989335
0.989212
0.989162
0.989127
0.989143
0.989052
0.98904
0.988981
0.988979
0.988916
0.988896
0.988903
0.98894
0.988963
0.989098
0.989154
0.989256
0.98936
0.989427
0.989497
0.989414
0.989362
0.989313
0.989256
0.989167
0.989215
0.989143
0.989105
0.989079
0.989079
0.989113
0.989131
0.989161
0.989169
0.989159
0.98903
0.989005
0.988886
0.988856
0.988734
0.988618
0.988612
0.988555
0.988542
0.988533
0.988726
0.988929
0.98918
0.989296
0.989413
0.989473
0.989497
0.989551
0.989433
0.989445
0.989525
0.989512
0.989627
0.990129
0.9904
0.990006
0.989837
0.989685
0.989511
0.989306
0.989225
0.989408
0.989478
0.989755
0.989822
0.989937
0.989921
0.989927
0.989923
0.989893
0.989868
0.98984
0.989803
0.989787
0.989736
0.98971
0.98977
0.98976
0.989816
0.989764
0.989667
0.989615
0.989611
0.989725
0.989703
0.989538
0.989408
0.989412
0.989337
0.989339
0.989354
0.989337
0.989216
0.98925
0.989199
0.989189
0.989052
0.989015
0.988836
0.988506
0.988489
0.988118
0.987729
0.987813
0.987683
0.987597
0.987552
0.987885
0.98816
0.988839
0.989217
0.989395
0.989494
0.989533
0.989529
0.989527
0.989434
0.989445
0.989341
0.989441
0.989866
0.990018
0.99046
0.989984
0.989772
0.989708
0.989513
0.989206
0.989017
0.988797
0.988784
0.988988
0.989215
0.98913
0.989298
0.989419
0.989538
0.989586
0.989769
0.989775
0.989864
0.989906
0.989862
0.989935
0.989939
0.989936
0.989919
0.989887
0.989854
0.989842
0.989804
0.989795
0.989868
0.989827
0.989857
0.989889
0.989869
0.990056
0.99015
0.990072
0.989955
0.989962
0.989938
0.989943
0.989908
0.989873
0.989915
0.989868
0.989921
0.990107
0.99036
0.990191
0.989895
0.989804
0.989638
0.98956
0.989494
0.989426
0.989381
0.989329
0.989336
0.989365
0.989401
0.989435
0.989428
0.989574
0.989449
0.989327
0.989335
0.989329
0.989307
0.9893
0.989238
0.989252
0.989124
0.98904
0.988806
0.98822
0.987728
0.987014
0.986812
0.986337
0.986396
0.986313
0.986193
0.986565
0.986499
0.987516
0.988651
0.989318
0.989537
0.989612
0.989598
0.989556
0.98952
0.989429
0.989422
0.989354
0.989318
0.989322
0.989624
0.989482
0.989645
0.990114
0.990528
0.990069
0.989802
0.989669
0.98946
0.989404
0.989291
0.988974
0.988783
0.988462
0.988111
0.987672
0.98759
0.987912
0.988337
0.98871
0.988611
0.988804
0.988936
0.989315
0.989404
0.989559
0.989789
0.989857
0.989914
0.989937
0.989946
0.989927
0.989941
0.989908
0.989913
0.990013
0.990113
0.989926
0.989717
0.989677
0.989526
0.989481
0.989412
0.989384
0.989349
0.989289
0.989265
0.989201
0.989287
0.989343
0.989372
0.989326
0.98928
0.989096
0.988764
0.987822
0.987162
0.986191
0.985338
0.985584
0.985024
0.984257
0.984433
0.984207
0.983914
0.983406
0.984327
0.98491
0.986273
0.988241
0.989538
0.989752
0.989738
0.989636
0.989545
0.989485
0.989407
0.989385
0.989319
0.989312
0.989302
0.98926
0.98947
0.989443
0.98965
0.990255
0.990505
0.99009
0.989842
0.989695
0.989516
0.989391
0.989222
0.989026
0.989014
0.989212
0.98941
0.989551
0.989528
0.989707
0.989845
0.989919
0.98995
0.989963
0.989945
0.989996
0.990034
0.990074
0.990209
0.990054
0.989785
0.989557
0.98953
0.98939
0.989281
0.989209
0.989223
0.989186
0.98911
0.98905
0.989085
0.989167
0.989344
0.989482
0.989549
0.98949
0.988708
0.987234
0.98649
0.984975
0.983978
0.982982
0.983279
0.98233
0.982137
0.981315
0.981488
0.981491
0.9815
0.982409
0.983301
0.98338
0.984492
0.987451
0.989923
0.990069
0.98983
0.989624
0.989488
0.989418
0.989348
0.989274
0.989344
0.989289
0.989237
0.989229
0.989222
0.989291
0.989255
0.989293
0.989486
0.989666
0.990144
0.990328
0.989934