/*--------------------------------*- C++ -*----------------------------------*\
| =========                 |                                                 |
| \\      /  F ield         | OpenFOAM: The Open Source CFD Toolbox           |
|  \\    /   O peration     | Version:  5.0                                   |
|   \\  /    A nd           | Web:      www.OpenFOAM.org                      |
|    \\/     M anipulation  |                                                 |
\*---------------------------------------------------------------------------*/
FoamFile
{
    version     2.0;
    format      ascii;
    class       volScalarField;
    location    "60";
    object      FFRRest;
}
// * * * * * * * * * * * * * * * * * * * * * * * * * * * * * * * * * * * * * //

dimensions      [0 0 0 0 0 0 0];

internalField   nonuniform List<scalar> 
36177
(
0.999861
0.999867
0.999854
0.999842
0.99983
0.999818
0.999814
0.999816
0.999829
0.99984
0.999851
0.999854
0.999864
0.999866
0.999872
0.999872
0.99986
0.999848
0.999836
0.999824
0.999813
0.999804
0.999802
0.9998
0.999809
0.999806
0.999805
0.99981
0.999799
0.999814
0.999821
0.999899
0.999898
0.999889
0.999886
0.99988
0.999881
0.999886
0.999887
0.999888
0.999889
0.999887
0.999873
0.999874
0.999871
0.99986
0.999842
0.999841
0.999824
0.999812
0.999801
0.999787
0.999775
0.999774
0.999779
0.99979
0.999802
0.999813
0.999827
0.99984
0.99984
0.99984
0.999842
0.999841
0.999813
0.999814
0.999793
0.99978
0.999765
0.999749
0.999732
0.999727
0.999735
0.999752
0.999767
0.999782
0.999797
0.999812
0.999813
0.99981
0.99981
0.999809
0.999788
0.999761
0.999758
0.999731
0.999713
0.99969
0.999668
0.999645
0.999642
0.999645
0.999681
0.9997
0.999722
0.99974
0.99976
0.999759
0.999751
0.999754
0.999747
0.999721
0.999686
0.999682
0.999651
0.999632
0.999608
0.999589
0.999571
0.999568
0.999561
0.999592
0.999611
0.999637
0.99966
0.999684
0.999682
0.999676
0.99968
0.999673
0.999645
0.99961
0.999611
0.999585
0.999572
0.999552
0.999534
0.999515
0.999496
0.999494
0.999492
0.999514
0.999532
0.999548
0.999568
0.999585
0.999607
0.999607
0.999605
0.999608
0.999604
0.999583
0.999553
0.999561
0.999535
0.999518
0.999499
0.999479
0.999456
0.999455
0.999459
0.99948
0.999498
0.999517
0.999534
0.999552
0.999553
0.999549
0.99955
0.999552
0.999524
0.999505
0.999481
0.999462
0.999438
0.999418
0.999378
0.999374
0.999383
0.999417
0.999441
0.99944
0.999437
0.999465
0.999467
0.999494
0.999495
0.99952
0.999536
0.999539
0.99957
0.999572
0.999603
0.999612
0.99965
0.999666
0.999693
0.99972
0.999717
0.999726
0.999743
0.999769
0.999767
0.999777
0.999784
0.999794
0.999794
0.999795
0.999792
0.9998
0.999812
0.999828
0.999843
0.999858
0.99987
0.999879
0.99988
0.999888
0.999889
0.999887
0.999889
0.999875
0.999872
0.999862
0.999863
0.999839
0.99984
0.999838
0.999806
0.999804
0.999783
0.999776
0.999747
0.99974
0.999715
0.999709
0.999672
0.999667
0.999639
0.999634
0.999604
0.9996
0.99958
0.999572
0.999541
0.999545
0.999517
0.999494
0.999472
0.999429
0.999427
0.999396
0.999369
0.999334
0.999332
0.999344
0.999379
0.999405
0.999428
0.99942
0.999402
0.999411
0.999403
0.999367
0.999339
0.999307
0.999284
0.999248
0.99925
0.999251
0.999285
0.999318
0.99928
0.999274
0.999286
0.99932
0.99933
0.99938
0.999385
0.999385
0.999441
0.999442
0.999439
0.99947
0.999495
0.999496
0.999525
0.999525
0.999544
0.999576
0.999582
0.999591
0.99962
0.999658
0.999671
0.999681
0.999723
0.999734
0.999744
0.999774
0.999783
0.999789
0.999788
0.999789
0.999786
0.999904
0.999903
0.999899
0.999898
0.999897
0.999898
0.999891
0.999892
0.99989
0.999874
0.999873
0.99988
0.999862
0.999866
0.999836
0.999833
0.999832
0.999798
0.999799
0.9998
0.999769
0.999767
0.999736
0.99973
0.999733
0.999699
0.999699
0.999662
0.99966
0.999664
0.999625
0.999628
0.999594
0.999595
0.999593
0.999564
0.999561
0.99954
0.99951
0.999508
0.999477
0.999454
0.999431
0.999387
0.99938
0.999344
0.999312
0.999275
0.999238
0.999202
0.999175
0.999181
0.99918
0.999222
0.999222
0.99922
0.999225
0.999284
0.999293
0.999293
0.999332
0.999386
0.999393
0.999389
0.999444
0.99944
0.999466
0.999472
0.999492
0.999497
0.999519
0.999524
0.999534
0.999557
0.999588
0.999588
0.999629
0.999628
0.999669
0.999681
0.999695
0.999733
0.999745
0.999769
0.99978
0.99979
0.999792
0.999792
0.999794
0.999783
0.999904
0.999905
0.999902
0.999902
0.999902
0.999899
0.999899
0.999904
0.999897
0.999903
0.999894
0.999887
0.999884
0.999893
0.999887
0.999867
0.999848
0.999841
0.999822
0.999794
0.999782
0.999775
0.99974
0.999733
0.999732
0.999727
0.999709
0.999675
0.999665
0.999665
0.999662
0.999633
0.999599
0.999591
0.999592
0.999588
0.999569
0.999537
0.999531
0.999531
0.999499
0.999468
0.999466
0.999463
0.999413
0.999405
0.999362
0.999328
0.999323
0.999279
0.999234
0.999187
0.99916
0.999128
0.999103
0.99907
0.999073
0.999079
0.999111
0.99916
0.999165
0.999155
0.99916
0.999229
0.999236
0.999233
0.999291
0.99929
0.999326
0.999332
0.999335
0.999365
0.99939
0.999422
0.999431
0.999436
0.99946
0.999471
0.999495
0.999519
0.999525
0.999537
0.99956
0.999591
0.999592
0.999591
0.999632
0.999634
0.999629
0.999667
0.999677
0.999696
0.999731
0.999743
0.999744
0.999784
0.999788
0.999796
0.999806
0.999802
0.999784
0.999788
0.999901
0.999903
0.9999
0.999902
0.999902
0.999894
0.999899
0.999899
0.9999
0.999896
0.999895
0.999894
0.999891
0.999882
0.999888
0.999892
0.999908
0.999892
0.999916
0.9999
0.999891
0.99986
0.99981
0.999793
0.999771
0.999734
0.999747
0.999744
0.999744
0.99972
0.999684
0.99968
0.999676
0.999646
0.999613
0.999606
0.9996
0.999573
0.999541
0.999538
0.999534
0.999504
0.999464
0.999459
0.999453
0.999454
0.999442
0.999403
0.999345
0.999341
0.999339
0.999303
0.999267
0.999249
0.999195
0.999156
0.999101
0.99909
0.999059
0.99904
0.999018
0.999027
0.999033
0.999057
0.999078
0.999102
0.999085
0.999058
0.999072
0.999052
0.99901
0.999001
0.998988
0.998978
0.998981
0.998973
0.999014
0.999027
0.999007
0.999017
0.999086
0.999087
0.99909
0.999169
0.999173
0.999164
0.999169
0.999205
0.999233
0.999266
0.999273
0.999276
0.999312
0.999342
0.999383
0.9994
0.999417
0.999445
0.999485
0.999494
0.999493
0.999493
0.999518
0.999554
0.99956
0.999559
0.999557
0.999586
0.999627
0.999625
0.999636
0.999671
0.999711
0.99972
0.999734
0.99978
0.999791
0.999795
0.999818
0.99981
0.999805
0.999809
0.999786
0.999874
0.999882
0.99989
0.999896
0.999882
0.999891
0.999892
0.999887
0.999868
0.999885
0.999886
0.999881
0.99987
0.999887
0.999892
0.99987
0.999847
0.999846
0.999854
0.999826
0.999805
0.999813
0.999816
0.999879
0.99989
0.999899
0.999891
0.999916
0.999916
0.99991
0.999892
0.999864
0.999814
0.999805
0.999788
0.999747
0.999734
0.99976
0.999791
0.999832
0.999807
0.999767
0.999745
0.999721
0.999717
0.999711
0.999726
0.999717
0.999734
0.999764
0.99979
0.999822
0.999851
0.999881
0.999899
0.999914
0.999897
0.999897
0.999891
0.999875
0.999885
0.999844
0.999809
0.999772
0.999729
0.999743
0.999735
0.999737
0.999733
0.999732
0.99973
0.999774
0.999852
0.999874
0.999873
0.999846
0.999833
0.999825
0.999833
0.999826
0.999799
0.999787
0.999777
0.999773
0.999764
0.999859
0.999867
0.999851
0.999863
0.999864
0.999875
0.999865
0.999845
0.999854
0.999836
0.999853
0.999858
0.999828
0.999805
0.999784
0.999787
0.999735
0.999722
0.999682
0.99966
0.99966
0.999659
0.999646
0.999623
0.999615
0.999666
0.999576
0.999568
0.999561
0.999632
0.999744
0.999788
0.999834
0.999756
0.999724
0.999761
0.999743
0.999756
0.999746
0.999757
0.999856
0.999855
0.99984
0.999843
0.999824
0.999834
0.999837
0.999818
0.999826
0.9998
0.999806
0.999817
0.999823
0.999804
0.999778
0.99978
0.99978
0.999741
0.999737
0.999722
0.999687
0.999664
0.999653
0.999632
0.999605
0.999581
0.999564
0.999559
0.99954
0.999542
0.999528
0.999524
0.999553
0.999611
0.999695
0.99968
0.999675
0.999714
0.999709
0.999735
0.999734
0.999743
0.999755
0.999847
0.999829
0.999811
0.999822
0.999802
0.999803
0.999812
0.999789
0.999793
0.99977
0.999775
0.999746
0.99974
0.999739
0.9997
0.999697
0.999673
0.999634
0.999625
0.999613
0.999604
0.999589
0.999568
0.999549
0.999531
0.999519
0.999508
0.999509
0.999512
0.999501
0.999519
0.99953
0.99955
0.999571
0.999592
0.999607
0.999626
0.999623
0.999584
0.999581
0.999566
0.999548
0.999529
0.99951
0.999496
0.999488
0.999487
0.999482
0.999489
0.999485
0.999516
0.999504
0.999511
0.999506
0.999533
0.999559
0.999611
0.999611
0.99961
0.999667
0.999667
0.999704
0.9997
0.999728
0.999743
0.999756
0.999749
0.999833
0.999843
0.999826
0.999808
0.999788
0.999791
0.999778
0.999753
0.999767
0.999778
0.999784
0.999758
0.999766
0.999739
0.999746
0.999719
0.999717
0.999713
0.999714
0.999673
0.99968
0.999636
0.999636
0.999599
0.999596
0.999576
0.999563
0.999551
0.999546
0.999524
0.999504
0.999488
0.999474
0.999462
0.999467
0.999459
0.999459
0.999468
0.999489
0.999494
0.999515
0.999511
0.999537
0.999563
0.99957
0.999575
0.999587
0.999621
0.999625
0.999663
0.999672
0.999701
0.999727
0.999741
0.999747
0.999763
0.999764
0.999817
0.999825
0.999806
0.999815
0.999796
0.999774
0.999754
0.999724
0.999727
0.999743
0.999756
0.999748
0.999715
0.999738
0.999714
0.999713
0.999707
0.99966
0.999665
0.999635
0.999638
0.999606
0.999604
0.999616
0.999576
0.999581
0.999587
0.999556
0.999557
0.999538
0.999528
0.999508
0.999488
0.999468
0.999451
0.99944
0.999435
0.999438
0.999437
0.999432
0.999446
0.999456
0.999473
0.999494
0.999514
0.99954
0.999547
0.999511
0.999504
0.99948
0.999458
0.999439
0.999423
0.999408
0.999405
0.9994
0.999381
0.999402
0.999446
0.999458
0.999472
0.999481
0.999495
0.999505
0.99952
0.999514
0.999539
0.999537
0.999542
0.999573
0.999577
0.999618
0.999635
0.999674
0.999703
0.99973
0.999731
0.99975
0.999758
0.999776
0.99982
0.999828
0.999837
0.999845
0.999828
0.99981
0.999796
0.999792
0.999801
0.999781
0.999765
0.99976
0.999739
0.999717
0.999689
0.999661
0.999621
0.999627
0.999603
0.999607
0.999578
0.99958
0.99959
0.999555
0.999568
0.999563
0.999551
0.999546
0.999538
0.99953
0.999531
0.999507
0.999497
0.999469
0.999441
0.999413
0.999384
0.999354
0.999318
0.99929
0.999328
0.999309
0.99935
0.999383
0.999415
0.999447
0.999477
0.999507
0.999517
0.999474
0.999465
0.999419
0.99937
0.999319
0.999272
0.999188
0.999155
0.999194
0.999295
0.99932
0.999398
0.99942
0.999442
0.999456
0.999498
0.999487
0.999494
0.999501
0.999498
0.999506
0.999517
0.999527
0.999527
0.999534
0.999549
0.999545
0.999578
0.999622
0.999627
0.999669
0.999704
0.999711
0.999738
0.999745
0.999767
0.999786
0.999795
0.999776
0.999786
0.999765
0.999739
0.999708
0.999667
0.999689
0.999695
0.99972
0.999683
0.999685
0.999654
0.999612
0.999593
0.999562
0.999575
0.999578
0.999543
0.999534
0.999546
0.999548
0.999568
0.999535
0.999536
0.999528
0.999555
0.99952
0.999517
0.999516
0.999461
0.999448
0.999384
0.999305
0.999176
0.999093
0.998998
0.998906
0.998913
0.999
0.99911
0.999181
0.999127
0.998994
0.999048
0.998957
0.998819
0.998713
0.998608
0.99858
0.998649
0.998851
0.998792
0.998894
0.998935
0.998953
0.999219
0.999312
0.999383
0.999433
0.999443
0.999463
0.999474
0.999486
0.999502
0.99952
0.999534
0.999543
0.999545
0.999544
0.999539
0.99953
0.999532
0.99955
0.999532
0.999535
0.999545
0.999542
0.999549
0.999527
0.999541
0.99949
0.999478
0.99936
0.999347
0.999212
0.999062
0.998869
0.998787
0.998644
0.998549
0.998434
0.998316
0.998248
0.998363
0.998505
0.998458
0.998511
0.998491
0.998809
0.99882
0.998932
0.999177
0.999352
0.999422
0.999437
0.999513
0.999507
0.999503
0.999478
0.999482
0.999492
0.999491
0.999511
0.99951
0.9995
0.9995
0.999503
0.999527
0.999529
0.999549
0.999551
0.99959
0.999586
0.999591
0.999639
0.999678
0.999686
0.999719
0.999728
0.999754
0.999755
0.999766
0.999776
0.999754
0.999725
0.999692
0.999656
0.999659
0.999621
0.999646
0.999611
0.999589
0.999566
0.999572
0.99953
0.999518
0.999512
0.999519
0.999537
0.999519
0.999525
0.999527
0.999544
0.999552
0.999569
0.999578
0.999545
0.999562
0.999513
0.999316
0.999184
0.999125
0.998921
0.998575
0.998554
0.998436
0.998435
0.998324
0.998231
0.998124
0.998071
0.997973
0.99795
0.99798
0.99823
0.998216
0.998452
0.99847
0.998591
0.998667
0.999034
0.999269
0.999653
0.999599
0.999563
0.99953
0.999418
0.999453
0.999452
0.999469
0.999473
0.999453
0.999452
0.999479
0.999473
0.999461
0.99949
0.999492
0.999519
0.999552
0.999555
0.999584
0.999592
0.999604
0.999653
0.999662
0.999697
0.999697
0.999711
0.999671
0.999638
0.999634
0.999652
0.999613
0.999584
0.999587
0.99956
0.999535
0.999515
0.9995
0.999494
0.999487
0.999502
0.999509
0.999514
0.999504
0.999495
0.999502
0.999528
0.99953
0.999567
0.999557
0.999607
0.999636
0.999614
0.999531
0.999679
0.999543
0.999302
0.999096
0.998734
0.998813
0.999121
0.999375
0.999685
0.999503
0.999437
0.999486
0.999518
0.99939
0.999355
0.999359
0.999347
0.99939
0.999406
0.999417
0.999436
0.999417
0.999416
0.999443
0.999437
0.999433
0.999455
0.999452
0.99946
0.999495
0.999523
0.999528
0.999559
0.999573
0.999604
0.999611
0.999608
0.999579
0.999608
0.999566
0.999552
0.999521
0.999553
0.999527
0.999507
0.999497
0.999494
0.999494
0.9995
0.999486
0.999473
0.999472
0.999454
0.999472
0.999482
0.999531
0.999535
0.99956
0.99959
0.999626
0.999689
0.999702
0.999686
0.999703
0.999674
0.999629
0.999583
0.99954
0.999541
0.99944
0.999427
0.999429
0.999415
0.99939
0.999393
0.999415
0.999338
0.999326
0.999347
0.999368
0.999338
0.999337
0.999332
0.999353
0.999351
0.999385
0.999381
0.999411
0.999407
0.999402
0.999395
0.999423
0.999421
0.999414
0.999438
0.999441
0.999449
0.999455
0.999461
0.999465
0.999499
0.999503
0.999538
0.999552
0.999511
0.999495
0.999499
0.99948
0.999479
0.99948
0.999481
0.99948
0.999466
0.999443
0.999448
0.999438
0.999416
0.999432
0.999429
0.999442
0.999444
0.999444
0.999387
0.999385
0.99936
0.999363
0.999397
0.999323
0.999306
0.999309
0.999279
0.999279
0.999306
0.999329
0.999294
0.99929
0.999294
0.999279
0.999323
0.999348
0.999345
0.999377
0.999375
0.999383
0.999386
0.99938
0.999407
0.999416
0.99942
0.999432
0.999422
0.999428
0.999445
0.999451
0.999458
0.99947
0.99947
0.999469
0.999461
0.999486
0.999467
0.99947
0.99947
0.999465
0.999457
0.999446
0.999425
0.999427
0.999401
0.999366
0.999384
0.999382
0.999389
0.999386
0.999366
0.999383
0.999322
0.999319
0.999303
0.999299
0.999297
0.999309
0.999261
0.999246
0.99924
0.999192
0.999177
0.999209
0.999248
0.999204
0.999266
0.999248
0.999258
0.999313
0.999307
0.999355
0.999358
0.999349
0.999363
0.999372
0.999388
0.999399
0.99939
0.999417
0.999413
0.999421
0.99944
0.999446
0.999435
0.99944
0.999461
0.999463
0.999469
0.999465
0.999458
0.999447
0.999432
0.999401
0.999389
0.999346
0.999334
0.999263
0.999285
0.999317
0.99932
0.999295
0.999301
0.999252
0.99925
0.99924
0.999236
0.999225
0.999226
0.999238
0.99917
0.999177
0.99918
0.999124
0.99913
0.999146
0.999167
0.999126
0.999124
0.999122
0.999187
0.999161
0.999171
0.999249
0.999242
0.999241
0.999308
0.999308
0.999307
0.999322
0.999334
0.999381
0.999391
0.999402
0.99942
0.99943
0.999427
0.999446
0.999452
0.999444
0.999446
0.99944
0.999431
0.999418
0.999427
0.99944
0.999447
0.999423
0.99941
0.999391
0.999363
0.999408
0.999379
0.999339
0.999284
0.999244
0.999195
0.999218
0.999221
0.999225
0.999227
0.999231
0.999178
0.999174
0.999155
0.999147
0.999146
0.999141
0.999137
0.999087
0.999099
0.999054
0.999059
0.999075
0.999089
0.999072
0.999095
0.999101
0.99909
0.999083
0.999078
0.999149
0.99913
0.999142
0.99924
0.999247
0.999297
0.999308
0.999318
0.999329
0.999347
0.999358
0.999399
0.999413
0.99943
0.999422
0.999424
0.999413
0.999412
0.999393
0.999361
0.999325
0.999323
0.999323
0.999274
0.999233
0.999193
0.999188
0.99912
0.99915
0.999156
0.999161
0.999096
0.999098
0.999082
0.999074
0.999067
0.999058
0.999075
0.999096
0.999036
0.99903
0.999041
0.999016
0.999029
0.999042
0.999051
0.999035
0.999035
0.99903
0.999038
0.999044
0.999047
0.99905
0.999054
0.999057
0.999062
0.999071
0.999083
0.999083
0.999046
0.999071
0.999076
0.999075
0.99903
0.999024
0.999019
0.999029
0.999028
0.999023
0.999015
0.999026
0.999033
0.998995
0.999009
0.999017
0.998968
0.998974
0.999008
0.999028
0.999044
0.999033
0.999064
0.999057
0.999045
0.999038
0.999088
0.999069
0.99906
0.999126
0.999138
0.999157
0.999168
0.999254
0.999266
0.999276
0.999296
0.999352
0.999353
0.999312
0.999265
0.999255
0.999247
0.999201
0.99917
0.999168
0.99917
0.999192
0.999228
0.999173
0.999127
0.999079
0.999054
0.999022
0.998993
0.999016
0.999016
0.999019
0.998982
0.998983
0.99897
0.999004
0.999004
0.999002
0.998993
0.999003
0.999028
0.998961
0.998968
0.998968
0.998948
0.998966
0.998898
0.998889
0.998932
0.998986
0.999015
0.999037
0.999026
0.999053
0.999051
0.999059
0.99904
0.999019
0.999072
0.999075
0.999063
0.999069
0.999146
0.999153
0.999182
0.999198
0.999193
0.99926
0.999181
0.999142
0.99911
0.999077
0.999016
0.99901
0.99899
0.998964
0.998975
0.998917
0.998943
0.99894
0.998894
0.998893
0.998883
0.998933
0.998925
0.998928
0.998942
0.998977
0.998971
0.998892
0.998908
0.99884
0.998819
0.998739
0.998808
0.998869
0.998946
0.998949
0.999006
0.999029
0.99902
0.999013
0.999004
0.999016
0.999009
0.999034
0.999027
0.999018
0.999009
0.999076
0.999072
0.999074
0.999076
0.999126
0.999163
0.99918
0.999144
0.999159
0.999124
0.999081
0.999048
0.999015
0.998995
0.998994
0.99898
0.99897
0.998987
0.999007
0.998968
0.998945
0.99891
0.998883
0.99883
0.998875
0.998873
0.998859
0.998817
0.998822
0.998809
0.998864
0.998855
0.998854
0.998872
0.998911
0.998897
0.998781
0.998782
0.998818
0.998689
0.998676
0.998589
0.998666
0.998744
0.998807
0.998815
0.998918
0.99888
0.998868
0.998968
0.999014
0.999021
0.999014
0.99901
0.999001
0.999003
0.999002
0.999029
0.999017
0.999053
0.99905
0.999058
0.999053
0.999019
0.999036
0.998974
0.998978
0.998913
0.998911
0.998859
0.998834
0.998789
0.998769
0.998716
0.998761
0.998758
0.998694
0.998696
0.998681
0.998661
0.998644
0.998627
0.998629
0.998674
0.998525
0.998522
0.998397
0.998468
0.998557
0.998667
0.998674
0.99879
0.998746
0.998733
0.998859
0.998811
0.998808
0.998927
0.998917
0.998922
0.998921
0.998924
0.998932
0.999009
0.998987
0.998993
0.998993
0.998967
0.998971
0.998944
0.998907
0.998873
0.998825
0.998814
0.99878
0.998742
0.998742
0.998726
0.998668
0.998624
0.998669
0.998664
0.998644
0.998593
0.99859
0.998566
0.998548
0.99853
0.998501
0.998495
0.998538
0.99838
0.998352
0.998228
0.998275
0.99832
0.998431
0.998464
0.998632
0.998573
0.998576
0.998728
0.998673
0.99867
0.998793
0.998798
0.998806
0.998926
0.998924
0.99892
0.99892
0.998937
0.998929
0.998886
0.998859
0.998875
0.998835
0.998773
0.998777
0.998757
0.998723
0.998655
0.998644
0.998604
0.998545
0.998546
0.998554
0.998568
0.998496
0.998485
0.998449
0.998414
0.998371
0.998361
0.998379
0.998246
0.998217
0.998093
0.998065
0.998082
0.998114
0.998117
0.998126
0.998102
0.998087
0.99816
0.998231
0.998309
0.998381
0.998437
0.998473
0.998514
0.998497
0.998507
0.998449
0.998493
0.998497
0.998486
0.998462
0.998366
0.998349
0.998308
0.998272
0.99822
0.99819
0.998072
0.998055
0.997992
0.99799
0.998006
0.99804
0.998072
0.998189
0.998215
0.998323
0.998366
0.998397
0.99856
0.998507
0.998511
0.998659
0.998673
0.998679
0.998691
0.9988
0.998805
0.998808
0.998805
0.998775
0.998777
0.998778
0.998697
0.998686
0.998672
0.998595
0.998601
0.998574
0.998534
0.998517
0.998551
0.998589
0.998512
0.998463
0.998457
0.998443
0.998501
0.998423
0.998409
0.9983
0.998355
0.998355
0.998361
0.998319
0.998223
0.9982
0.998159
0.998109
0.998107
0.998086
0.997991
0.997988
0.997848
0.997865
0.997865
0.997854
0.99784
0.997859
0.997872
0.997861
0.997855
0.997844
0.99792
0.997986
0.998055
0.998116
0.998167
0.998229
0.998233
0.998238
0.998125
0.998193
0.998197
0.998201
0.998132
0.998113
0.998066
0.998005
0.997901
0.997902
0.997861
0.997789
0.997805
0.99777
0.997781
0.997772
0.997757
0.997755
0.997761
0.997762
0.997762
0.997762
0.997801
0.997852
0.997906
0.997966
0.998014
0.998055
0.99806
0.998069
0.997971
0.997992
0.99801
0.997993
0.997954
0.997962
0.997912
0.997843
0.997807
0.997754
0.997758
0.997741
0.997754
0.997723
0.997725
0.997718
0.997698
0.997695
0.997704
0.997715
0.997735
0.997763
0.997803
0.99785
0.997891
0.997933
0.997971
0.997984
0.997986
0.997905
0.997909
0.997879
0.997813
0.997802
0.997778
0.997793
0.997761
0.997739
0.997736
0.997722
0.997732
0.99773
0.997712
0.997702
0.997695
0.997683
0.997683
0.997722
0.997701
0.997747
0.997755
0.997793
0.997891
0.997917
0.997998
0.998118
0.998144
0.998192
0.998325
0.998321
0.998358
0.998504
0.998538
0.998538
0.998556
0.998685
0.998707
0.998712
0.998806
0.998807
0.998766
0.998776
0.998743
0.998764
0.998819
0.998855
0.998895
0.998832
0.998798
0.998752
0.998717
0.998656
0.998619
0.99862
0.998581
0.998535
0.998544
0.998529
0.998488
0.998454
0.998447
0.998413
0.998345
0.998362
0.998339
0.998325
0.998352
0.998382
0.998385
0.998454
0.998487
0.998503
0.998596
0.998585
0.998598
0.998594
0.998561
0.998592
0.998565
0.99853
0.998496
0.998457
0.99844
0.998369
0.998392
0.998402
0.998389
0.998325
0.998292
0.998264
0.998178
0.998197
0.998177
0.998163
0.998071
0.998059
0.998076
0.998072
0.998163
0.998186
0.998238
0.998345
0.998344
0.998447
0.998456
0.998565
0.998566
0.998523
0.998488
0.998524
0.998477
0.998508
0.998464
0.998419
0.9984
0.998378
0.998344
0.998303
0.998303
0.998353
0.998321
0.998244
0.99819
0.998125
0.998115
0.998106
0.998088
0.998039
0.997987
0.998018
0.997915
0.997894
0.997886
0.997936
0.997959
0.997976
0.997911
0.997855
0.997858
0.997864
0.997869
0.997792
0.997796
0.997756
0.997748
0.997735
0.997725
0.997713
0.997697
0.997699
0.997702
0.997699
0.997692
0.997671
0.997667
0.997671
0.997674
0.99768
0.997692
0.997704
0.99771
0.997718
0.997734
0.997755
0.997745
0.997715
0.997686
0.997693
0.997695
0.997694
0.997683
0.997702
0.997681
0.997689
0.997669
0.997678
0.997667
0.997662
0.997648
0.997646
0.997651
0.997656
0.997667
0.997675
0.997685
0.997695
0.997703
0.997708
0.997709
0.997717
0.99776
0.997745
0.997815
0.997826
0.997759
0.99779
0.997781
0.99772
0.99772
0.997689
0.997664
0.997694
0.99767
0.997688
0.997677
0.997672
0.997663
0.997661
0.997674
0.997658
0.997673
0.997664
0.997656
0.997644
0.997633
0.997637
0.997623
0.997646
0.997648
0.997653
0.997644
0.99765
0.997647
0.997669
0.997663
0.997686
0.997709
0.997712
0.997748
0.997765
0.997873
0.997856
0.997866
0.997966
0.998123
0.998173
0.998228
0.99824
0.998361
0.998401
0.998406
0.99841
0.998368
0.998336
0.998308
0.998284
0.998204
0.998103
0.998085
0.998154
0.998061
0.998071
0.998086
0.998071
0.998009
0.997995
0.997909
0.9979
0.997897
0.997919
0.997917
0.997913
0.997911
0.997901
0.997912
0.998017
0.998128
0.99814
0.998285
0.998288
0.998304
0.998361
0.998359
0.998253
0.998225
0.998109
0.998203
0.998197
0.998252
0.998241
0.998163
0.998084
0.998089
0.997998
0.997989
0.997941
0.997834
0.997846
0.99778
0.99779
0.9978
0.99781
0.99775
0.997761
0.997753
0.997746
0.99773
0.997736
0.997747
0.997748
0.997756
0.997816
0.997813
0.997791
0.997749
0.99773
0.997717
0.99776
0.997767
0.997674
0.99765
0.997671
0.997659
0.997674
0.997653
0.997668
0.997659
0.997652
0.997658
0.997647
0.997637
0.997651
0.997638
0.997648
0.997645
0.997647
0.997631
0.997628
0.997633
0.997631
0.99764
0.997645
0.99765
0.997655
0.997659
0.997659
0.997662
0.997662
0.997643
0.997642
0.997647
0.997631
0.99764
0.997626
0.997641
0.997606
0.997604
0.997602
0.997612
0.997616
0.997617
0.997621
0.997632
0.997638
0.997637
0.997632
0.99762
0.997622
0.99764
0.99763
0.99762
0.997627
0.997621
0.997622
0.997615
0.997608
0.99762
0.997619
0.997639
0.997665
0.997642
0.997676
0.997703
0.997724
0.997756
0.99785
0.997887
0.99793
0.998031
0.998017
0.99798
0.998047
0.998036
0.998032
0.997945
0.997851
0.997863
0.997913
0.997837
0.997834
0.997878
0.997848
0.997804
0.997838
0.997784
0.997805
0.997767
0.99774
0.997729
0.997754
0.997785
0.997719
0.997689
0.997675
0.997648
0.997667
0.997664
0.997642
0.997676
0.997657
0.997702
0.997764
0.99774
0.997795
0.997805
0.997858
0.997914
0.997924
0.998029
0.998007
0.997949
0.997943
0.997845
0.997915
0.997916
0.997789
0.997806
0.997767
0.997711
0.997676
0.997671
0.997638
0.997648
0.997657
0.997666
0.997675
0.997633
0.997622
0.997612
0.997624
0.997616
0.997621
0.997612
0.997585
0.997593
0.997588
0.997573
0.997566
0.997574
0.997578
0.99758
0.9976
0.997602
0.99762
0.997633
0.997643
0.99763
0.997627
0.99762
0.997605
0.997611
0.997611
0.997612
0.99761
0.997612
0.997616
0.99762
0.997624
0.997626
0.997638
0.99762
0.997607
0.997607
0.997604
0.997592
0.997563
0.997552
0.997545
0.997542
0.997544
0.997544
0.997553
0.997569
0.997581
0.997597
0.997619
0.997638
0.997643
0.997642
0.997633
0.997633
0.997634
0.997639
0.997634
0.997625
0.997622
0.997623
0.997615
0.99761
0.997605
0.997603
0.997605
0.997604
0.997606
0.99766
0.997669
0.997661
0.997677
0.997685
0.997687
0.997633
0.997622
0.997625
0.997614
0.997621
0.997625
0.997623
0.997612
0.997611
0.997633
0.997633
0.997617
0.997635
0.997614
0.997632
0.997611
0.997605
0.997608
0.997612
0.997633
0.997647
0.997666
0.997657
0.997706
0.997736
0.997757
0.997746
0.997744
0.997719
0.99772
0.997733
0.997689
0.997705
0.997673
0.997687
0.99769
0.997684
0.997684
0.997684
0.997662
0.997639
0.997622
0.997615
0.997619
0.997605
0.997576
0.997583
0.997541
0.997535
0.997497
0.9975
0.997495
0.997488
0.997481
0.997487
0.997503
0.997521
0.997559
0.997588
0.997615
0.997636
0.997647
0.997643
0.997639
0.997635
0.997636
0.997634
0.99763
0.997629
0.997625
0.997623
0.997619
0.997615
0.997612
0.997606
0.997607
0.99761
0.997598
0.997605
0.997611
0.997619
0.997626
0.997637
0.997644
0.99762
0.997624
0.997622
0.997614
0.997614
0.997605
0.997617
0.997605
0.997585
0.997575
0.997564
0.997521
0.997516
0.997481
0.997473
0.997471
0.99745
0.997444
0.997448
0.997451
0.997454
0.997472
0.997481
0.997482
0.997508
0.997536
0.997579
0.997586
0.997578
0.997548
0.997518
0.997484
0.997483
0.997487
0.997489
0.99749
0.997493
0.997503
0.997519
0.997502
0.997502
0.997502
0.997465
0.997474
0.997445
0.997441
0.997453
0.99745
0.997429
0.997424
0.997424
0.997433
0.997441
0.997447
0.997462
0.997471
0.997488
0.997491
0.997536
0.997561
0.997631
0.997661
0.997647
0.99763
0.997613
0.997593
0.997587
0.997599
0.997626
0.997629
0.997629
0.997637
0.997646
0.997654
0.997638
0.997636
0.997638
0.997635
0.99763
0.997625
0.997622
0.997621
0.997623
0.997613
0.997615
0.997611
0.997603
0.997621
0.99763
0.997617
0.997634
0.997617
0.997626
0.997612
0.99761
0.997608
0.997612
0.997612
0.997617
0.997625
0.997621
0.997616
0.997616
0.997605
0.997588
0.997567
0.997549
0.99755
0.997546
0.997551
0.997567
0.997591
0.997616
0.997636
0.997626
0.997636
0.997625
0.997621
0.997614
0.997616
0.997623
0.997629
0.997635
0.99763
0.997625
0.99762
0.997613
0.997617
0.997622
0.997629
0.997632
0.99763
0.997629
0.99763
0.997632
0.99763
0.99763
0.997632
0.997633
0.997632
0.997634
0.997636
0.997631
0.997635
0.997645
0.997628
0.99763
0.99759
0.997555
0.997529
0.997511
0.997496
0.997495
0.997464
0.997451
0.997444
0.997448
0.997427
0.997426
0.997416
0.997422
0.997407
0.997403
0.997404
0.997407
0.997412
0.997428
0.997436
0.997447
0.997463
0.997473
0.997485
0.997465
0.997459
0.997454
0.997447
0.997435
0.997442
0.997437
0.997434
0.997433
0.997435
0.997443
0.997444
0.997442
0.997444
0.997442
0.997418
0.997419
0.997402
0.997397
0.99739
0.997374
0.997369
0.997362
0.997358
0.99736
0.997385
0.997404
0.997432
0.997444
0.997458
0.997466
0.997471
0.997483
0.997457
0.997462
0.997491
0.997487
0.997512
0.997591
0.997662
0.997642
0.997615
0.997586
0.997556
0.99752
0.997505
0.997537
0.997548
0.997594
0.997606
0.997628
0.997629
0.997633
0.997635
0.997633
0.997631
0.997629
0.997626
0.997628
0.997623
0.99762
0.997624
0.997623
0.997625
0.997609
0.997588
0.997579
0.997573
0.997596
0.997583
0.997552
0.997525
0.997512
0.997495
0.997481
0.997486
0.997483
0.997453
0.997448
0.997439
0.99744
0.997418
0.997418
0.997397
0.997362
0.997358
0.997321
0.997273
0.997278
0.997258
0.997246
0.997245
0.997291
0.997317
0.997392
0.997435
0.997453
0.997462
0.997465
0.997462
0.997465
0.997449
0.997457
0.997443
0.997469
0.997539
0.997562
0.997667
0.997643
0.997608
0.997595
0.997557
0.997503
0.997469
0.997427
0.997426
0.997463
0.997504
0.997489
0.997519
0.997539
0.99756
0.997568
0.9976
0.9976
0.997614
0.997622
0.997613
0.99763
0.997631
0.997634
0.997633
0.997633
0.997631
0.997631
0.997629
0.997626
0.997631
0.997618
0.997613
0.997603
0.99759
0.997636
0.997639
0.997652
0.997639
0.997635
0.997633
0.997633
0.997622
0.997616
0.997625
0.997618
0.997631
0.997655
0.997657
0.997621
0.99757
0.997558
0.997534
0.997525
0.997515
0.997501
0.99748
0.99747
0.99747
0.99747
0.997476
0.997486
0.997484
0.997524
0.997485
0.997449
0.997447
0.997444
0.997442
0.997443
0.997434
0.997442
0.997424
0.997419
0.997396
0.997334
0.997281
0.997193
0.997166
0.997096
0.997093
0.997084
0.997083
0.997135
0.997135
0.997252
0.997376
0.997448
0.997467
0.997469
0.997462
0.997453
0.99745
0.997436
0.997441
0.99743
0.997429
0.997438
0.9975
0.997473
0.9975
0.997568
0.997668
0.99765
0.997614
0.99759
0.997546
0.997537
0.997518
0.997461
0.997424
0.997364
0.997299
0.997216
0.9972
0.997264
0.997342
0.997412
0.997394
0.99743
0.997452
0.99752
0.997536
0.997562
0.997601
0.997611
0.997622
0.99763
0.997635
0.997636
0.997641
0.997639
0.997632
0.997636
0.997643
0.997598
0.99756
0.997562
0.997534
0.997509
0.997496
0.997477
0.997471
0.997453
0.997449
0.997439
0.997444
0.997448
0.997442
0.99743
0.997439
0.997426
0.997398
0.997295
0.997223
0.997106
0.99699
0.99701
0.996957
0.996845
0.996854
0.996826
0.996792
0.996723
0.996862
0.996959
0.997133
0.997344
0.99748
0.997489
0.997473
0.99745
0.997434
0.997428
0.997417
0.997421
0.997408
0.997411
0.997414
0.997419
0.997468
0.997468
0.997503
0.997604
0.997674
0.997652
0.997619
0.997594
0.997556
0.997534
0.997502
0.997468
0.997465
0.997501
0.997537
0.997561
0.997557
0.997588
0.997611
0.997624
0.997634
0.997639
0.997638
0.997644
0.997647
0.997649
0.997644
0.997607
0.997561
0.997523
0.997527
0.997501
0.99748
0.997464
0.997455
0.997446
0.997433
0.997424
0.997425
0.997432
0.997453
0.997472
0.997461
0.997475
0.997402
0.997243
0.997161
0.996979
0.996828
0.996689
0.996716
0.996599
0.996572
0.996435
0.996456
0.996444
0.996439
0.996573
0.996705
0.996773
0.996957
0.99728
0.997534
0.997517
0.997465
0.997423
0.997397
0.997393
0.997385
0.997367
0.997403
0.997384
0.997375
0.997379
0.997382
0.997415
0.997422
0.997435
0.99748
0.997512
0.9976
0.997634
0.997562
0.997568