/*--------------------------------*- C++ -*----------------------------------*\
| =========                 |                                                 |
| \\      /  F ield         | OpenFOAM: The Open Source CFD Toolbox           |
|  \\    /   O peration     | Version:  5.0                                   |
|   \\  /    A nd           | Web:      www.OpenFOAM.org                      |
|    \\/     M anipulation  |                                                 |
\*---------------------------------------------------------------------------*/
FoamFile
{
    version     2.0;
    format      ascii;
    class       volScalarField;
    location    "60";
    object      p;
}
// * * * * * * * * * * * * * * * * * * * * * * * * * * * * * * * * * * * * * //

dimensions      [1 -1 -2 0 0 0 0];

internalField   nonuniform List<scalar> 
36177
(
7303.52
7303.69
7302.71
7301.67
7300.55
7299.31
7298.83
7299.19
7300.56
7301.61
7302.65
7302.8
7303.65
7303.87
7304.39
7304.27
7303.42
7302.42
7301.37
7300.23
7299.14
7298.12
7297.77
7297.77
7298.1
7297.49
7297.65
7296.54
7296.9
7296.94
7297.03
7306.27
7306.13
7305.55
7305.26
7304.7
7304.88
7305.38
7305.38
7305.53
7305.65
7305.41
7304.58
7304.75
7304.37
7303.58
7302.37
7301.99
7300.64
7299.56
7298.54
7297.36
7296.35
7296.34
7296.58
7297.62
7298.69
7299.69
7300.9
7302.07
7302.08
7302.09
7302.48
7302.11
7300.3
7300.07
7298.67
7297.51
7296.3
7295.11
7293.95
7293.79
7294.27
7295.5
7296.6
7297.78
7298.92
7300.06
7300.15
7300.09
7300.31
7299.98
7298.57
7296.74
7296.29
7294.56
7293.31
7291.86
7290.62
7289.32
7289.17
7289.41
7291.33
7292.58
7293.97
7295.23
7296.58
7296.48
7296.14
7296.48
7295.95
7294.25
7292.22
7291.83
7290.19
7289.14
7287.9
7287.11
7286.37
7286.23
7285.8
7287.02
7287.94
7289.35
7290.61
7292.01
7291.82
7291.63
7292.02
7291.61
7290.13
7288.46
7288.58
7287.52
7287.02
7286.16
7285.46
7284.82
7284.12
7284.04
7283.82
7284.61
7285.15
7285.77
7286.57
7287.26
7288.24
7288.17
7288.32
7288.56
7288.57
7287.79
7286.49
7286.96
7285.92
7285.31
7284.58
7283.78
7282.79
7282.89
7282.92
7283.73
7284.42
7285.1
7285.67
7286.4
7286.5
7286.49
7286.46
7286.76
7285.58
7284.91
7283.96
7283.13
7282.04
7281.13
7279.04
7279.05
7279.39
7281.19
7282.14
7282.02
7281.89
7282.99
7282.83
7283.8
7283.73
7284.56
7284.97
7284.86
7286.08
7285.93
7287.26
7287.6
7289.49
7290.31
7291.92
7293.19
7292.98
7293.61
7294.65
7295.79
7295.69
7296.25
7296.75
7296.96
7296.71
7296.8
7296.57
7297.39
7298.63
7300.32
7301.82
7303.12
7304.15
7304.89
7305.05
7305.67
7305.74
7305.54
7305.72
7304.88
7304.53
7303.8
7303.96
7302.45
7302.22
7302.21
7300.17
7299.88
7298.44
7298.09
7296.23
7295.65
7294.11
7293.95
7291.77
7291.44
7290.01
7289.92
7288.56
7288.54
7287.86
7287.53
7286.07
7286.49
7285.25
7284.34
7283.45
7281.24
7281.04
7279.64
7278.47
7276.83
7276.86
7277.38
7279.14
7280.31
7281.32
7280.85
7279.48
7279.94
7279.6
7277.96
7276.75
7275.35
7274.41
7272.78
7273.12
7273.03
7274.73
7276.21
7274.47
7274.32
7274.69
7276.41
7276.85
7279.3
7279.47
7279.26
7281.83
7281.81
7281.46
7282.7
7283.59
7283.46
7284.47
7284.24
7284.82
7286.15
7286.17
7286.54
7287.98
7289.79
7290.54
7291.06
7293.19
7293.93
7294.45
7295.91
7296.36
7296.57
7296.05
7295.42
7295.1
7306.64
7306.62
7306.36
7306.24
7306.31
7306.43
7305.94
7306.16
7305.92
7304.96
7304.73
7305.19
7304.28
7304.18
7302.31
7302.07
7301.89
7299.76
7299.61
7299.71
7297.84
7297.5
7295.7
7295.21
7295.27
7293.55
7293.43
7291.35
7291.2
7291.33
7289.5
7289.71
7288.11
7288.35
7288.08
7286.97
7286.93
7286.08
7284.63
7284.67
7283.28
7282.31
7280.73
7278.27
7278.08
7276.47
7275.05
7273.35
7271.62
7270.03
7268.84
7269.68
7269.44
7271.7
7271.94
7271.62
7271.8
7274.68
7274.93
7274.74
7276.73
7279.37
7279.39
7279.22
7281.67
7281.45
7282.19
7282.49
7283.09
7283.47
7284.12
7284.07
7284.43
7285.21
7286.55
7286.47
7288.27
7288.33
7290.26
7290.84
7291.78
7293.59
7294.52
7295.56
7296.22
7296.67
7296.56
7296.68
7296.05
7295.31
7306.67
7306.7
7306.64
7306.65
7306.64
7306.42
7306.52
7306.79
7306.61
7307.04
7306.58
7306.02
7305.65
7306.3
7305.87
7304.74
7303.17
7302.43
7301.08
7299.34
7298.73
7297.95
7295.84
7295.48
7295.33
7294.93
7293.97
7292.08
7291.55
7291.45
7291.26
7289.82
7288.09
7287.87
7288.01
7287.78
7287.08
7285.47
7285.37
7285.46
7283.98
7282.42
7282.46
7281.97
7279.29
7278.84
7276.55
7275.04
7275.01
7272.9
7270.65
7268.43
7267.55
7266.26
7265.38
7264.23
7264.69
7264.53
7266.08
7268.67
7269.29
7268.49
7268.76
7272.21
7272.34
7272.06
7274.89
7274.7
7276.09
7276.53
7276.42
7277.71
7279.13
7280.23
7280.77
7280.8
7281.61
7282.25
7283.1
7283.87
7283.93
7284.48
7285.29
7286.62
7286.56
7286.53
7288.48
7288.63
7288.36
7290.06
7290.78
7291.83
7293.51
7294.38
7294.53
7296.53
7296.72
7297.23
7297.61
7297.54
7296.86
7295.66
7306.48
7306.61
7306.46
7306.59
7306.58
7306.28
7306.55
7306.59
7306.63
7306.49
7306.55
7306.58
7306.34
7305.98
7306.5
7306.93
7307.76
7306.45
7308.31
7307.45
7306.48
7304.21
7300.25
7298.85
7297.11
7294.72
7295.8
7296
7295.63
7294.12
7292.18
7292.19
7291.86
7290.28
7288.53
7288.24
7287.99
7286.75
7285.23
7285.34
7285.17
7283.66
7281.41
7281.28
7281.17
7281.34
7280.43
7278.23
7275.15
7275.12
7275.1
7273.57
7271.86
7270.86
7268.32
7266.69
7264.11
7263.66
7262.58
7262.23
7261.78
7262.53
7262.42
7263.14
7263.58
7264.46
7263.28
7261.85
7262.49
7261.7
7260.29
7260.57
7260.61
7260.76
7261.15
7260.46
7262.3
7263.4
7261.76
7262.36
7265.58
7265.22
7265.41
7269.47
7269.42
7268.86
7269.04
7270.6
7272.02
7273.28
7273.72
7273.64
7275.03
7276.24
7277.99
7279.05
7279.66
7280.74
7282.43
7282.93
7282.91
7282.77
7283.67
7285.13
7285.34
7285.26
7285.15
7286.35
7288.25
7288.23
7288.69
7290.42
7292.54
7292.93
7293.88
7296.41
7297.18
7297.24
7298.49
7298.56
7298.51
7298.41
7296.98
7304.89
7305.39
7305.87
7306.22
7305.53
7306.05
7306.11
7305.73
7304.92
7305.83
7306.03
7305.62
7305.2
7306.16
7306.5
7305.27
7304.02
7303.9
7304.53
7302.72
7301.77
7302.39
7302.65
7306.06
7307.05
7307.77
7307.23
7308.67
7308.98
7308.13
7306.65
7303.41
7298.75
7298.27
7296.8
7294.76
7293.88
7295.71
7298.18
7301.98
7299.52
7296.43
7294.66
7293.15
7293.05
7292.53
7293.53
7292.93
7293.88
7295.75
7297.73
7300.57
7303.46
7305.98
7307.34
7308.19
7307.4
7307.05
7306.55
7305.52
7306.28
7304.02
7301.98
7299.69
7297.83
7298.37
7298.18
7298.47
7298.27
7298.93
7297.96
7300.47
7304.97
7304.99
7303.6
7300.6
7299.66
7299.91
7299.93
7300.68
7299.34
7298.12
7297.41
7296.6
7295.88
7303.96
7304.46
7303.7
7304.29
7304.5
7305.07
7304.48
7303.57
7304.1
7303.22
7304.11
7304.48
7302.93
7301.63
7300.73
7300.86
7298.2
7297.55
7295.65
7294.44
7294.28
7294.01
7293.07
7291.83
7291.09
7293.85
7289.27
7288.55
7288.68
7292.12
7298.78
7300.3
7302.05
7298.05
7296.39
7297.52
7296.71
7296.61
7296.2
7295.21
7303.71
7303.62
7302.89
7303.2
7302.37
7302.93
7303.14
7302.31
7302.7
7301.48
7301.79
7302.4
7302.63
7301.71
7300.4
7300.56
7300.5
7298.69
7298.46
7297.59
7296.19
7295.27
7294.53
7293.4
7291.9
7290.69
7289.58
7289.24
7288.3
7288.37
7287.9
7287.97
7288.83
7291.42
7295.55
7294.61
7294.42
7295.93
7295.6
7296.34
7296.13
7296.03
7295.16
7303.07
7302.25
7301.44
7302.12
7301.24
7301.44
7301.94
7300.98
7301.19
7300.16
7300.32
7299.1
7298.87
7298.61
7297.05
7296.71
7295.75
7294.11
7293.65
7292.96
7292.4
7291.56
7290.52
7289.42
7288.47
7287.72
7287.33
7287.44
7287.47
7287.05
7287.7
7288.4
7289.54
7290.8
7291.9
7292.69
7293.59
7293.5
7292.06
7291.64
7290.79
7289.81
7288.72
7287.65
7287
7286.66
7286.68
7286.54
7286.92
7286.77
7287.87
7287.56
7287.83
7287.68
7288.54
7289.38
7291.6
7291.72
7291.68
7294.05
7294.01
7295.33
7295.17
7295.99
7296.14
7295.67
7295.6
7301.99
7302.66
7301.86
7301.11
7300.24
7300.53
7299.88
7298.78
7299.54
7300.2
7300.61
7299.51
7299.94
7298.82
7299.17
7297.98
7297.93
7297.6
7297.61
7295.94
7296.19
7294.35
7294.26
7292.94
7292.64
7292.01
7291.42
7290.77
7290.2
7288.93
7287.79
7286.88
7286.22
7285.72
7285.93
7285.7
7285.78
7286.42
7287.15
7287.56
7288.16
7287.99
7288.85
7289.74
7290.1
7290.33
7290.98
7292.23
7292.38
7293.84
7294.09
7295.1
7295.88
7296.12
7296.62
7296.71
7297.09
7300.61
7301.36
7300.5
7301.15
7300.35
7299.41
7298.61
7297.32
7297.69
7298.51
7299.28
7298.99
7297.49
7298.69
7297.54
7297.66
7297.2
7295.16
7295.53
7294.3
7294.46
7293.22
7293.07
7293.67
7292.26
7292.32
7292.68
7291.62
7291.39
7290.39
7289.7
7288.51
7287.39
7286.27
7285.43
7284.96
7284.73
7284.9
7284.85
7284.61
7285.2
7285.65
7286.52
7287.73
7288.89
7290.32
7290.81
7289.39
7288.72
7287.28
7286.04
7285.08
7284.32
7283.44
7283.28
7282.98
7281.88
7283.21
7285.41
7286.16
7287.06
7287.22
7288.02
7288.14
7288.46
7288.27
7289.03
7289.07
7289.34
7290.36
7290.59
7292.08
7292.84
7294.35
7295.36
7296.22
7296.36
7296.94
7297.62
7298.15
7300.91
7301.66
7302.3
7302.88
7302.08
7301.3
7300.65
7300.66
7301.25
7300.4
7299.71
7299.66
7298.82
7297.74
7296.39
7295.17
7293.63
7293.9
7293.03
7293.25
7292.2
7292.3
7292.72
7291.59
7292.11
7291.92
7291.71
7291.43
7290.98
7290.53
7290.84
7289.49
7288.69
7286.97
7285.38
7283.9
7282.32
7280.56
7278.45
7276.9
7279.37
7278.11
7280.5
7282.34
7284.06
7285.79
7287.47
7289.25
7289.78
7287.9
7286.93
7284.35
7281.62
7278.76
7276.18
7271.69
7270.05
7271.97
7277.31
7278.84
7282.93
7284.31
7285.8
7286.84
7288.96
7288.06
7288.55
7288.41
7288.25
7288.31
7288.49
7288.87
7288.97
7289.35
7289.68
7289.54
7290.62
7292.23
7292.57
7294.09
7295.44
7295.91
7296.9
7297.45
7298.27
7298.94
7299.73
7298.95
7299.68
7298.79
7297.71
7296.4
7294.73
7295.85
7296.34
7297.59
7295.97
7296.12
7294.77
7293.18
7292.53
7291.42
7292.01
7292.21
7290.99
7290.94
7291.49
7291.61
7292.52
7291.51
7291.51
7291.01
7292.17
7290.72
7290.22
7290.28
7287.26
7286.2
7282.6
7278.08
7271.46
7265.74
7261.04
7256.63
7256.23
7261.77
7267.72
7271.53
7268.45
7261.47
7264.61
7259.42
7252.92
7248.09
7243.17
7241.03
7244.96
7253.65
7250.57
7256.44
7258.58
7258.85
7272.91
7278.16
7282.43
7284.91
7285.91
7286.98
7287.65
7288.35
7289.24
7290.2
7291.03
7291.52
7291.62
7291.53
7291.6
7291.2
7291.4
7292.14
7291.81
7292.02
7292.31
7292.07
7292.72
7291.25
7291.73
7289.21
7287.89
7281.76
7280.4
7272.88
7265.12
7255.4
7252
7244.79
7241.2
7236.32
7231.13
7227.64
7233.16
7238.02
7235.8
7238.31
7236.23
7250.65
7250.56
7256.91
7269.46
7281.5
7285.83
7286.29
7290.27
7290.49
7289.51
7288.58
7288.24
7288.2
7288.26
7288.67
7288.64
7288.28
7288.33
7288.44
7289.04
7289.24
7289.78
7289.89
7291.06
7291.07
7291.32
7293.13
7294.66
7295.15
7296.43
7297.03
7298.08
7298.12
7298.92
7299.6
7298.68
7297.45
7296.02
7294.48
7294.72
7293.14
7294.39
7293.03
7292.31
7291.41
7291.76
7290.35
7290.26
7290.39
7290.71
7291.63
7291.3
7291.76
7292.15
7292.85
7293.01
7293.88
7294.33
7292.98
7293.53
7290.18
7278.78
7271.31
7268.74
7256.76
7238.72
7238.12
7234.4
7235.23
7231.23
7227.73
7224.03
7221.53
7217.42
7216.09
7216.48
7226.07
7224.12
7234.89
7235.06
7239.41
7242.25
7260.67
7275.68
7298.54
7295.87
7293.5
7292.42
7287.57
7288.28
7287.94
7288.25
7288.01
7287.37
7287.16
7287.79
7287.68
7287.22
7287.97
7288.04
7288.84
7289.79
7290.01
7290.87
7291.3
7291.89
7293.83
7294.38
7295.77
7295.79
7296.58
7294.93
7293.55
7293.4
7294.28
7292.72
7291.67
7291.88
7290.94
7290.1
7289.65
7289.58
7289.74
7289.82
7290.42
7290.79
7290.96
7290.94
7290.92
7291.42
7292.48
7292.95
7294.34
7293.97
7296.24
7297.94
7297.55
7291.73
7300.42
7292.26
7277.21
7263.69
7243.15
7248.51
7265.15
7283.17
7301.69
7294.61
7290.14
7292.04
7292.43
7286.78
7285.88
7286.2
7285.72
7286.58
7286.73
7286.82
7287.15
7286.8
7286.57
7287.07
7286.98
7286.69
7287.19
7286.99
7287.22
7288.15
7289.04
7289.18
7290.22
7290.8
7291.85
7292.32
7292.18
7291.08
7292.37
7290.76
7290.22
7289.2
7290.58
7289.78
7289.41
7289.51
7289.74
7290.05
7290.36
7290.21
7290.1
7290.25
7290
7290.77
7291.35
7293.38
7294.02
7295.75
7296.69
7299.22
7302.76
7303.4
7302.45
7303.03
7301.72
7299.03
7296.36
7293.97
7294.06
7290.47
7290.12
7290.08
7289.43
7288.46
7287.93
7288.78
7285.96
7285.23
7285.79
7286.28
7285.6
7285.89
7285.76
7286.12
7285.96
7286.58
7286.36
7286.92
7286.8
7286.84
7286.55
7286.99
7287.05
7286.77
7287.08
7287.18
7287.1
7287.29
7287.51
7287.39
7288.3
7288.51
7289.54
7290.09
7288.8
7288.57
7288.7
7288.43
7288.89
7289.29
7289.65
7289.95
7289.79
7289.4
7289.67
7289.25
7288.84
7289.45
7289.51
7290.16
7290.14
7290.28
7288.34
7288.33
7287.21
7287.2
7288.33
7285.76
7284.95
7284.94
7284.01
7284.01
7284.97
7285.77
7284.69
7284.45
7284.68
7284.2
7285.51
7286.04
7285.86
7286.52
7286.34
7286.66
7286.79
7286.53
7287
7287.27
7287.16
7287.52
7287.03
7287.26
7287.37
7287.61
7287.83
7287.8
7287.63
7287.73
7287.81
7288.66
7288.37
7288.67
7289.03
7289.19
7289.23
7289.12
7288.74
7288.86
7288.32
7287.15
7287.81
7287.79
7288.17
7288.24
7287.54
7287.74
7285.48
7285.61
7284.92
7284.83
7284.51
7284.91
7283.46
7282.89
7282.71
7281.16
7280.73
7281.66
7283.02
7281.57
7283.71
7283.03
7283.44
7285.18
7284.91
7286.25
7286.27
7285.89
7286.36
7286.54
7286.81
7287.11
7286.79
7287.43
7287.25
7287.54
7287.8
7288.01
7287.51
7287.82
7288.37
7288.5
7289
7289.21
7289.29
7289.19
7289
7288.05
7287.86
7286.4
7285.86
7283.32
7284.21
7285.4
7285.51
7284.54
7284.56
7283
7283.06
7282.72
7282.61
7282.23
7282.24
7282.6
7280.55
7280.74
7280.82
7279.19
7279.39
7279.88
7280.34
7279.1
7279.03
7278.86
7280.94
7279.86
7280.3
7283.06
7282.7
7282.77
7284.92
7284.88
7284.78
7285.15
7285.47
7286.82
7287.14
7287.27
7287.55
7287.91
7287.85
7288.3
7288.52
7288.14
7288.36
7288.49
7288.49
7288.33
7288.68
7288.78
7288.72
7288.04
7287.92
7287.54
7286.78
7288.32
7287.54
7286.06
7283.99
7282.57
7281.1
7281.91
7281.96
7282.12
7282.16
7282.15
7280.54
7280.45
7279.82
7279.62
7279.69
7279.51
7279.45
7277.99
7278.39
7277.12
7277.47
7277.77
7278.06
7277.56
7278.02
7278.02
7277.71
7277.4
7277.07
7279.28
7278.54
7279
7282.47
7282.68
7284.34
7284.6
7284.88
7285.22
7285.88
7286.27
7287.45
7287.67
7288.16
7287.87
7288.01
7287.92
7287.91
7287.52
7286.63
7285.44
7285.47
7285.49
7283.66
7282.31
7281.06
7280.9
7278.43
7279.6
7279.75
7279.86
7277.8
7277.93
7277.55
7277.39
7277.26
7277.09
7277.58
7278.25
7276.58
7276.5
7277.09
7276.6
7277.21
7277.45
7277.48
7276.73
7276.76
7276.85
7277.16
7277.12
7276.96
7276.84
7276.79
7276.72
7276.72
7276.82
7277
7276.9
7275.87
7276.75
7277.02
7277.05
7275.78
7275.69
7275.72
7276.19
7276.25
7276.21
7276.1
7276.62
7276.9
7275.94
7276.53
7276.83
7275.31
7275.63
7276.74
7277.22
7277.42
7276.83
7277.43
7276.98
7276.74
7276.27
7277.5
7276.84
7276.45
7278.32
7278.55
7279.4
7279.68
7282.84
7283.19
7283.54
7284.28
7285.99
7286.22
7284.96
7283.27
7282.9
7282.65
7281.13
7280.17
7280.06
7280.01
7280.7
7281.8
7279.83
7278.35
7276.64
7275.81
7275.16
7274.47
7275.19
7275.28
7275.43
7274.48
7274.6
7274.32
7275.48
7275.47
7275.49
7275.41
7275.83
7276.62
7274.71
7275.1
7275.27
7274.74
7275.37
7273.04
7272.47
7274.09
7276.05
7276.87
7277.29
7276.73
7277.27
7277.17
7277.13
7276.48
7275.63
7276.89
7276.73
7276.37
7276.42
7278.72
7278.9
7280.08
7280.64
7280.51
7282.88
7280.05
7278.5
7277.54
7276.55
7274.74
7274.66
7274.19
7273.52
7274
7272.16
7273.13
7273.17
7271.75
7271.85
7271.68
7273.43
7273.28
7273.56
7274.09
7275.2
7275.25
7272.78
7273.25
7270.87
7269.87
7266.82
7269.33
7271.51
7274.39
7274.38
7276.56
7276.97
7276.59
7276.21
7275.64
7275.95
7275.48
7276.11
7275.67
7275.32
7274.87
7276.63
7276.34
7276.5
7276.5
7277.95
7279.18
7279.97
7278.64
7279.18
7278.12
7276.63
7275.77
7275.01
7274.62
7274.63
7274.1
7273.8
7274.2
7274.62
7273.54
7272.88
7271.76
7270.95
7269.41
7270.95
7270.98
7270.53
7269.36
7269.7
7269.45
7271.24
7271.11
7271.24
7271.84
7273.16
7272.79
7268.74
7268.52
7269.85
7265.17
7264.43
7261.1
7263.92
7266.82
7268.95
7269.18
7273.05
7271.5
7270.97
7274.76
7276.2
7276.58
7275.99
7275.59
7275.06
7275.1
7274.81
7275.49
7275.07
7275.92
7275.66
7275.93
7275.81
7274.8
7275.47
7273.64
7273.79
7271.86
7271.76
7270.1
7269.43
7268.05
7267.54
7265.92
7267.47
7267.41
7265.33
7265.59
7265.13
7264.4
7263.77
7263.1
7262.91
7264.43
7259.22
7258.7
7253.78
7256
7259.34
7263.65
7263.94
7268.19
7266.42
7265.98
7270.54
7268.63
7268.65
7272.76
7272.67
7272.63
7272.48
7272.41
7272.57
7274.85
7274.14
7274.31
7274.24
7273.53
7273.54
7272.84
7271.7
7270.76
7269.32
7269
7267.83
7266.54
7266.52
7266.13
7264.41
7263.24
7264.49
7264.32
7263.69
7262.32
7262.22
7261.46
7260.89
7260.18
7258.96
7258.35
7259.71
7254.17
7252.42
7247.8
7248.91
7250.16
7254.03
7255.5
7261.93
7259.64
7260
7265.65
7263.56
7263.68
7267.8
7267.8
7268.45
7272.53
7272.33
7272.08
7271.94
7272.66
7272.37
7270.96
7269.89
7270.44
7269.27
7267.41
7267.63
7266.9
7265.95
7263.82
7263.81
7262.69
7260.94
7261
7261.28
7261.87
7259.71
7259.29
7257.82
7256.35
7254.52
7253.68
7254.01
7249.8
7248.11
7244.01
7242.95
7243.16
7243.93
7243.75
7244
7243.7
7242.96
7246.07
7249.21
7252.29
7255.1
7257.39
7258.83
7260.21
7259.38
7260.11
7258.52
7259.84
7259.87
7259.65
7258.64
7255.6
7254.85
7253.18
7251.64
7249.31
7247.94
7243.94
7243.2
7241.34
7240.66
7240.69
7241.53
7242.55
7246.29
7247.44
7250.77
7251.83
7253.39
7259.14
7257.32
7257.92
7262.95
7263.48
7264.02
7264.47
7267.88
7268.37
7268.44
7268.27
7267.35
7267.49
7267.35
7264.79
7264.63
7263.92
7261.81
7262.24
7261.51
7260.3
7259.98
7260.74
7261.7
7259.19
7257.94
7258.26
7258.23
7259.88
7257.79
7257.49
7253.77
7255.61
7255.44
7255.73
7253.95
7250.85
7249.89
7248.24
7246.16
7245.72
7244.56
7242.09
7241.95
7237.18
7237.95
7237.47
7236.58
7235.58
7235.86
7236.37
7236.53
7236.83
7236.4
7239.11
7241.73
7244.46
7246.88
7248.77
7251.11
7251.23
7251.69
7247.8
7250.08
7250.09
7250.21
7247.89
7247.22
7245.36
7242.78
7239.7
7239.56
7237.79
7235.98
7236.86
7235.4
7235.71
7234.96
7234.09
7233.84
7234.15
7234.47
7234.84
7234.81
7235.96
7237.78
7239.86
7242.11
7244.1
7245.48
7245.54
7246.22
7242.96
7243.73
7244.26
7243.45
7241.84
7242.3
7240.24
7238.31
7236.95
7235.78
7236.06
7235.34
7235.81
7234.65
7234.73
7234.08
7233.19
7233.07
7233.7
7234.14
7234.36
7235.14
7236.48
7238.2
7239.66
7241.12
7242.33
7242.64
7243.16
7240.63
7240.99
7240.23
7238.19
7237.54
7236.6
7237.41
7236.29
7236.24
7236.33
7236.18
7236.39
7235.9
7234.99
7234.36
7233.8
7233.01
7232.98
7233.42
7232.48
7233.29
7233.03
7233.96
7236.72
7237.35
7239.97
7244.1
7245.17
7247.23
7251.41
7251.06
7252.69
7257.42
7258.93
7259.1
7259.9
7263.99
7264.78
7265.32
7268.11
7268.32
7267.05
7267.34
7266.4
7267.18
7268.99
7270
7271.27
7269.26
7268.27
7266.89
7265.99
7264.08
7263.06
7263.25
7262
7260.71
7261.19
7260.6
7259.67
7258.74
7258.57
7257.6
7255.15
7255.59
7254.88
7254.19
7254.82
7255.56
7255.64
7257.46
7258.05
7258.69
7261.39
7261.07
7261.64
7261.3
7260.53
7261.79
7261.21
7260.35
7259.09
7258.11
7258.06
7255.65
7256.55
7256.57
7255.91
7253.1
7252.4
7251.86
7248.81
7249.46
7249.12
7249.01
7245.5
7244.8
7245.15
7244.74
7247.46
7247.9
7249.89
7253.34
7253.42
7256.5
7256.8
7260.14
7260.17
7259.03
7258.2
7259.66
7258.2
7258.88
7257.07
7255.93
7255.78
7255.52
7254.86
7253.88
7253.91
7255.46
7254.03
7251.53
7249.89
7247.81
7247.61
7247.46
7246.58
7244.68
7243.23
7244.39
7240.88
7240.24
7239.83
7241.43
7242.41
7242.94
7240.88
7239.17
7239.22
7239.81
7240.43
7237.68
7237.91
7236.68
7237.01
7236.83
7236.72
7236.47
7236.1
7236.17
7236.04
7235.64
7235.01
7233.99
7233.85
7234.24
7234.59
7235.22
7235.91
7236.04
7236.03
7236.06
7236.33
7236.55
7236.43
7235.87
7235.34
7235.6
7235.79
7236
7235.85
7236.71
7236.08
7236.45
7235.71
7236.03
7235.43
7234.97
7234.2
7234.08
7234.54
7234.98
7235.57
7235.41
7235.36
7235.35
7235.3
7235.21
7234.89
7234.9
7236.21
7235.51
7237.79
7238.6
7236.52
7237.83
7237.42
7235.51
7235.51
7234.5
7234.23
7235.43
7235
7235.79
7235.8
7235.93
7235.89
7235.99
7236.44
7235.96
7236.54
7236.06
7235.56
7234.89
7234.25
7233.93
7233.27
7233.3
7233.43
7233.86
7233.34
7233.04
7232.81
7233.09
7232.31
7232.47
7232.68
7232.31
7233.02
7233.12
7236.18
7235.92
7235.88
7239.19
7244.42
7246.53
7248.67
7249.17
7252.93
7254.56
7254.71
7254.84
7253.82
7253.16
7252.65
7252.37
7249.57
7245.95
7245.93
7248.51
7245.02
7245.31
7245.6
7245.02
7242.43
7242.57
7239.55
7239.15
7239.49
7240.78
7240.8
7240.13
7239.41
7238.42
7238.44
7241.98
7245.56
7246.06
7251.01
7251.11
7251.76
7254.05
7254.29
7250.22
7249.71
7245.51
7249.15
7249.09
7250.76
7250.21
7247.05
7243.97
7244
7240.7
7240.77
7238.77
7235.64
7236.46
7234.82
7235.54
7236.36
7237.12
7235.28
7236.2
7235.49
7234.68
7233.78
7234.08
7234.81
7234.85
7235.63
7237.37
7238.01
7237.6
7236.26
7235.69
7235.1
7236.29
7236.61
7233.65
7233.23
7234.26
7234.23
7234.99
7234.63
7235.43
7235.53
7235.57
7236.01
7235.79
7235.56
7236.12
7235.76
7236.24
7236.08
7235.87
7235.17
7235.01
7235.34
7235.42
7235.9
7235.79
7235.79
7235.66
7235.4
7235.01
7234.78
7234.47
7234.16
7233.95
7234.37
7234.21
7234.78
7234.66
7235.33
7234.32
7234.37
7234.35
7234.75
7235.02
7235.23
7235.58
7236.06
7236.22
7235.97
7235.58
7235.09
7234.98
7235.11
7234.66
7234.13
7234.16
7234.23
7233.86
7233.59
7233.07
7232.7
7232.15
7232.02
7232.32
7231.31
7231.77
7232.28
7232.78
7233.21
7235.79
7236.99
7238.07
7241.74
7241.34
7240.67
7243.11
7243.42
7243.96
7240.91
7237.61
7238.65
7240.32
7238.1
7238.9
7239.98
7238.91
7237.7
7239
7237.25
7237.75
7236.69
7235.94
7234.87
7235.55
7236.59
7234.41
7233.95
7233.41
7232.86
7234.01
7233.66
7232.7
7233.21
7232.11
7232.83
7234.4
7233.26
7234.52
7234.88
7236.54
7238.64
7239.17
7242.97
7241.8
7239.58
7240.14
7236.78
7239.12
7239.3
7235.14
7236.34
7235.23
7233.68
7233.09
7233.04
7232.42
7232.76
7233.31
7233.94
7234.51
7233.47
7233.56
7233.43
7233.93
7234.01
7234.37
7234.33
7233.61
7233.92
7233.6
7233.31
7233.26
7233.7
7234.02
7234.29
7235.11
7235.26
7236.12
7236.62
7236.8
7236.15
7236
7235.89
7235.38
7235.68
7235.47
7235.25
7234.87
7234.6
7234.46
7234.33
7234.16
7233.92
7234.55
7234.11
7233.95
7234
7234.07
7233.83
7233.05
7232.71
7232.63
7232.64
7232.84
7233.06
7233.57
7234.24
7234.94
7235.69
7236.6
7237.12
7236.94
7236.69
7236.39
7236.21
7236.35
7236.1
7235.89
7235.66
7235.33
7234.88
7234.59
7234.11
7233.71
7233.4
7232.63
7232.28
7231.49
7232.23
7232.27
7231.56
7231.89
7232.31
7232.47
7231.66
7232.13
7232.22
7232.56
7232.85
7233.04
7233.45
7233.61
7233.72
7234.59
7234.47
7233.94
7234.1
7233.36
7233.43
7232.64
7232.79
7232.06
7231.36
7232
7232.09
7232.35
7232.35
7233.08
7233.96
7234.18
7233.35
7233.58
7232.75
7233.21
7234.2
7233.14
7234.17
7233.62
7234.6
7234.43
7234.95
7235.23
7235.49
7235.09
7234.58
7234.31
7234.38
7234.69
7234.31
7233.62
7233.72
7232.61
7232.36
7231.42
7231.46
7231.32
7231.21
7231.15
7231.47
7232.08
7232.86
7234.46
7235.72
7236.83
7237.61
7237.49
7237.03
7236.77
7236.67
7236.52
7236.2
7236.13
7235.9
7235.49
7235.49
7235.06
7234.73
7234.46
7234.12
7234.29
7233.9
7232.98
7233.13
7232.89
7232.72
7233.03
7233.53
7234.02
7233.62
7234.16
7234.4
7234.29
7234.6
7234.18
7234.91
7234.62
7234.15
7233.79
7233.44
7232.24
7232.06
7231.18
7230.94
7230.88
7230.51
7230.27
7230.46
7230.69
7230.89
7231.37
7231.87
7232.11
7233.13
7234.22
7235.87
7236.38
7235.97
7234.62
7233.32
7231.99
7232
7231.86
7231.76
7231.64
7231.58
7231.77
7232.14
7231.96
7231.98
7231.97
7231.04
7231.19
7230.5
7230.31
7230.64
7230.54
7230.07
7229.89
7229.98
7230.36
7230.72
7231.03
7231.64
7232.08
7232.85
7233.06
7234.75
7235.79
7238.7
7239.05
7237.39
7236.56
7235.94
7235.09
7234.88
7235.39
7236.49
7236.51
7236.56
7236.83
7237.3
7238.17
7238.22
7238.18
7237.84
7237.22
7236.57
7236.07
7235.72
7235.42
7235.18
7234.74
7234.39
7234.33
7234.48
7235.24
7235.49
7235.05
7235.2
7234.7
7234.65
7234.18
7233.52
7233.35
7233.93
7233.89
7234.43
7234.8
7234.71
7234.63
7234.99
7234.9
7234.36
7233.59
7233.29
7233.29
7233.18
7233.57
7234.2
7235.05
7235.91
7236.36
7235.91
7235.87
7235.54
7235.04
7234.53
7234.92
7235.37
7235.78
7236.1
7236
7235.64
7235.23
7234.66
7234.98
7235.54
7235.91
7236.23
7236.17
7236.13
7236.25
7236.44
7236.39
7236.29
7236.55
7236.48
7236.29
7236.48
7236.36
7236.2
7236.14
7236.57
7236.6
7236.69
7235.59
7234.26
7233.32
7232.7
7232.18
7232.15
7231.25
7230.88
7230.63
7230.75
7230.08
7229.99
7229.56
7229.55
7229.09
7228.94
7229
7229.26
7229.43
7230.42
7230.83
7231.58
7232.33
7232.83
7233.34
7232.73
7232.34
7231.99
7231.57
7230.92
7231.27
7230.75
7230.47
7230.28
7230.28
7230.53
7230.66
7230.88
7230.94
7230.86
7229.92
7229.74
7228.87
7228.65
7227.75
7226.91
7226.87
7226.45
7226.35
7226.29
7227.7
7229.18
7231.02
7231.87
7232.72
7233.16
7233.33
7233.73
7232.87
7232.96
7233.54
7233.44
7234.28
7237.96
7239.94
7237.05
7235.82
7234.71
7233.43
7231.94
7231.35
7232.69
7233.2
7235.22
7235.71
7236.55
7236.43
7236.47
7236.45
7236.23
7236.04
7235.84
7235.57
7235.45
7235.08
7234.89
7235.33
7235.26
7235.67
7235.28
7234.58
7234.2
7234.17
7235
7234.84
7233.64
7232.68
7232.71
7232.17
7232.18
7232.29
7232.16
7231.28
7231.53
7231.16
7231.08
7230.08
7229.81
7228.5
7226.09
7225.97
7223.26
7220.41
7221.03
7220.08
7219.44
7219.12
7221.55
7223.56
7228.52
7231.29
7232.59
7233.31
7233.6
7233.57
7233.55
7232.87
7232.96
7232.19
7232.92
7236.03
7237.15
7240.37
7236.9
7235.35
7234.88
7233.45
7231.21
7229.83
7228.21
7228.12
7229.61
7231.27
7230.65
7231.88
7232.77
7233.64
7233.99
7235.32
7235.37
7236.02
7236.33
7236.01
7236.54
7236.57
7236.54
7236.42
7236.18
7235.94
7235.86
7235.58
7235.51
7236.04
7235.75
7235.96
7236.2
7236.05
7237.42
7238.11
7237.54
7236.68
7236.73
7236.56
7236.59
7236.34
7236.08
7236.39
7236.05
7236.43
7237.79
7239.64
7238.41
7236.24
7235.58
7234.36
7233.79
7233.31
7232.81
7232.49
7232.1
7232.16
7232.37
7232.63
7232.88
7232.83
7233.9
7232.99
7232.09
7232.15
7232.1
7231.94
7231.89
7231.44
7231.55
7230.61
7229.99
7228.28
7224
7220.4
7215.18
7213.7
7210.23
7210.66
7210.06
7209.18
7211.9
7211.42
7218.85
7227.15
7232.02
7233.63
7234.17
7234.08
7233.77
7233.51
7232.84
7232.79
7232.29
7232.03
7232.06
7234.26
7233.23
7234.42
7237.84
7240.87
7237.51
7235.56
7234.59
7233.07
7232.65
7231.83
7229.51
7228.11
7225.77
7223.2
7220
7219.39
7221.75
7224.85
7227.58
7226.86
7228.27
7229.23
7232.01
7232.65
7233.79
7235.47
7235.97
7236.38
7236.55
7236.61
7236.47
7236.58
7236.34
7236.37
7237.11
7237.84
7236.47
7234.94
7234.65
7233.55
7233.22
7232.71
7232.51
7232.25
7231.82
7231.64
7231.17
7231.8
7232.21
7232.42
7232.09
7231.75
7230.4
7227.98
7221.09
7216.27
7209.16
7202.93
7204.73
7200.64
7195.03
7196.32
7194.66
7192.52
7188.81
7195.54
7199.8
7209.77
7224.15
7233.63
7235.2
7235.09
7234.35
7233.69
7233.25
7232.68
7232.52
7232.03
7231.98
7231.91
7231.6
7233.14
7232.94
7234.45
7238.88
7240.71
7237.67
7235.86
7234.78
7233.48
7232.56
7231.32
7229.89
7229.8
7231.25
7232.69
7233.73
7233.56
7234.87
7235.88
7236.42
7236.65
7236.74
7236.61
7236.98
7237.26
7237.55
7238.54
7237.41
7235.44
7233.78
7233.57
7232.55
7231.76
7231.23
7231.33
7231.06
7230.51
7230.07
7230.32
7230.93
7232.22
7233.22
7233.71
7233.29
7227.57
7216.79
7211.35
7200.28
7192.99
7185.71
7187.88
7180.94
7179.53
7173.52
7174.79
7174.81
7174.87
7181.52
7188.04
7188.62
7196.75
7218.38
7236.45
7237.51
7235.77
7234.26
7233.27
7232.75
7232.24
7231.7
7232.21
7231.81
7231.43
7231.38
7231.32
7231.83
7231.56
7231.84
7233.26
7234.57
7238.06
7239.41
7236.53
7236.16
7235.28
7233.24
7231.88
7232.54
7231.73
7231.91
7231.98
7232.03
7232.05
7232.76
7232.51
7232.32
7232.19
7231.64
7231.79
7232.14
7232.73
7233.49
7234.4
7236.01
7237.98
7228.61
7218.55
7224.34
7210.19
7197.01
7189.76
7182.64
7175.71
7172.81
7166.38
7166.22
7169.14
7164.16
7165.02
7166.18
7167.77
7171.37
7173.19
7173.67
7177.55
7178.76
7179.58
7174.67
7173.15
7173.75
7173.46
7173.67
7175.41
7164.32
7166.3
7156.18
7158.42
7154.39
7150.28
7154.74
7154.95
7158.48
7161.23
7161.66
7162.49
7165.01
7166.85
7170.63
7171.51
7174.69
7172.65
7177.01
7191.36
7213.74
7226.13
7242.5
7238.8
7235.14
7233.29
7232.32
7231.72
7231.95
7231.46
7231.34
7231
7231.54
7231.4
7231.41
7231.41
7231.94
7231.63
7231.64
7231.72
7231.87
7231.97
7232.15
7232.28
7232.56
7232.5
7232.36
7234.27
7235.42
7234.56
7232.51
7234.14
7235.87
7237.96
7239.26
7239.01
7237.4
7235
7231.49
7230.65
7229.82
7229.95
7229.95
7230.15
7230.11
7230.12
7230.91
7231.02
7231.29
7231.47
7231.66
7231.94
7232.45
7233.19
7233
7232.86
7231.81
7230.25
7229.79
7229.59
7230.59
7230.91
7231.42
7231.66
7232.19
7231.05
7230.74
7230.71
7231.08
7231.92
7231.54
7234.78
7228.82
7228.32
7228.37
7228.02
7228.07
7227.74
7226.68
7226.38
7225.03
7225.86
7225.88
7226.23
7226.75
7225.91
7225.23
7226.4
7227.23
7227.45
7227.33
7227.59
7227.23
7223.82
7223.41
7223.09
7225.42
7223.18
7222.73
7222.63
7222.41
7222.68
7222.39
7222.67
7222.95
7223.56
7223.98
7224.72
7227.67
7227.88
7228.42
7228.45
7228.47
7228.07
7228.89
7230.41
7230.34
7230.46
7229.98
7230.41
7227.78
7227.18
7223.93
7220.84
7220.87
7220.65
7220.39
7220
7219.66
7219.46
7219.35
7219.63
7219.63
7220.04
7220.36
7220.67
7220.79
7221.3
7220.79
7224.17
7225.42
7225.22
7224.93
7226.1
7223.88
7224.39
7227.72
7227.52
7224.1
7220.81
7218.23
7218.36
7218.38
7217.95
7217.34
7216.87
7216.47
7216.29
7216.24
7216.4
7216.52
7216.84
7217.02
7217.31
7217.6
7217.74
7217.48
7217.43
7220.66
7223.95
7225.35
7224.02
7224.06
7224.37
7224.15
7223.82
7220.78
7217.96
7214.17
7214.71
7214.06
7213.53
7213.12
7212.86
7212.82
7212.84
7213.04
7213.11
7213.24
7213.46
7213.7
7213.76
7213.67
7213.67
7213.76
7213.9
7217.65
7221.03
7220.93
7217.98
7214.53
7214.88
7214.93
7210.99
7210.65
7210.33
7209.78
7209.61
7209.38
7209.3
7209.25
7209.43
7209.63
7209.7
7209.74
7210.24
7210.32
7209.89
7210.19
7210.32
7210.65
7210.4
7212.53
7210.69
7207.99
7207.62
7207.44
7207.58
7206.88
7206.53
7206.24
7206.17
7206.2
7206.66
7206.5
7206.12
7206.34
7206.12
7206.27
7208.07
7205.59
7206.84
7206.83
7207.04
7207.24
7207.47
7207.56
7204.84
7204.56
7207.66
7207.46
7204.62
7204.8
7204.56
7204.28
7203.93
7203.75
7203.44
7203.46
7203.58
7203.51
7203.41
7203.62
7204.12
7204.43
7204.68
7204.75
7203.02
7203.24
7203.4
7203.59
7203.74
7203.81
7203.81
7203.66
7203.29
7202.54
7201.98
7201.89
7201.71
7201.39
7201.68
7202.15
7202.5
7202.82
7201.54
7201.88
7202.2
7202.51
7202.76
7202.99
7203.28
7203.5
7203.46
7203.26
7202.69
7202.11
7201.86
7202.24
7202.63
7202.85
7202.86
7203.21
7202.32
7202.1
7202.51
7202.84
7202.88
7202.76
7202.19
7201.82
7200.42
7200.11
7200.83
7201.06
7201.27
7200.08
7200.3
7200.66
7201
7201.39
7201.69
7200.44
7201.03
7201.43
7201.81
7202.09
7201.92
7201.27
7200.99
7198.76
7200
7200.19
7200.28
7200.52
7200.8
7201.24
7201.78
7200.61
7201.22
7199.69
7199.03
7199.47
7198.74
7198.93
7199.4
7199.69
7200.06