/*--------------------------------*- C++ -*----------------------------------*\
| =========                 |                                                 |
| \\      /  F ield         | OpenFOAM: The Open Source CFD Toolbox           |
|  \\    /   O peration     | Version:  5.0                                   |
|   \\  /    A nd           | Web:      www.OpenFOAM.org                      |
|    \\/     M anipulation  |                                                 |
\*---------------------------------------------------------------------------*/
FoamFile
{
    version     2.0;
    format      ascii;
    class       surfaceScalarField;
    location    "60";
    object      phiHyper;
}
// * * * * * * * * * * * * * * * * * * * * * * * * * * * * * * * * * * * * * //

dimensions      [0 3 -1 0 0 0 0];

internalField   nonuniform List<scalar> 
101002
(
3.50484e-10
8.93978e-10
3.3659e-10
-3.15472e-10
8.83694e-10
-3.62108e-10
-7.04244e-10
5.33157e-10
1.14439e-09
-7.49938e-10
-5.62941e-10
1.05221e-09
1.22518e-09
-9.31313e-10
1.4328e-09
-5.82263e-10
9.71113e-10
-8.91302e-10
1.53906e-09
-3.93677e-10
3.5946e-10
-4.82918e-10
1.20735e-09
-1.12767e-10
-1.28667e-09
1.80902e-09
9.01233e-10
-1.06412e-09
-1.24071e-09
1.27541e-09
-1.2644e-09
1.09865e-09
-1.17735e-09
8.50859e-10
6.16081e-10
-2.10342e-09
2.79381e-09
2.70215e-09
-3.33936e-09
-8.72547e-10
1.37757e-09
-2.63392e-09
-3.53814e-10
-1.53843e-09
4.72543e-10
-9.6458e-10
-2.41285e-10
3.79526e-10
1.17742e-09
-5.1125e-10
2.45535e-10
-4.39151e-10
2.22248e-09
4.47661e-10
-9.59526e-10
2.80798e-09
1.67761e-09
-1.21088e-09
3.25916e-09
2.19203e-09
-1.21039e-09
3.12269e-09
2.60485e-09
-9.29296e-10
2.3559e-09
2.25125e-09
-2.77102e-10
9.31265e-10
-3.47111e-10
1.38936e-09
3.82393e-10
-1.59681e-09
2.41104e-09
1.51571e-09
-1.39866e-09
-1.26687e-09
1.13198e-09
4.91134e-10
-1.30228e-09
4.45499e-10
-1.57354e-09
2.37397e-10
2.00006e-09
-1.72797e-10
2.25196e-09
1.52143e-09
8.1531e-10
2.97311e-09
-1.42211e-10
1.17253e-09
7.285e-10
-1.12873e-09
1.0941e-09
7.07733e-10
1.62043e-09
3.30388e-09
7.47675e-10
5.74114e-10
2.86305e-10
1.27518e-09
4.74307e-10
-5.27825e-10
4.50096e-10
4.42491e-10
8.93847e-11
2.93212e-10
9.73503e-10
-3.10554e-10
-5.25237e-10
3.12394e-10
-8.29683e-10
-1.57009e-09
3.43935e-09
-3.55148e-09
3.10858e-09
-6.34987e-10
1.47936e-09
-2.28249e-09
-4.9909e-10
5.1875e-10
2.62416e-09
1.65316e-09
-2.8176e-09
8.6191e-10
3.57287e-10
-1.42507e-09
1.41723e-09
2.75837e-10
1.18755e-10
5.45956e-10
1.01907e-09
-1.7638e-09
1.67064e-10
6.96431e-10
1.90874e-09
1.38193e-10
-7.82324e-10
3.26681e-09
2.28041e-10
-1.13843e-09
1.02415e-09
8.73199e-10
1.46658e-09
-9.71016e-11
1.67211e-09
-4.13191e-10
-3.89648e-10
1.54889e-10
2.18674e-09
-9.59949e-10
1.3377e-09
-8.92371e-10
2.76214e-09
-1.36485e-09
1.73857e-09
-9.49098e-10
2.72383e-09
-1.3973e-09
2.07246e-09
-6.3683e-10
1.97565e-09
-9.6754e-10
1.92948e-09
-2.13747e-10
8.12196e-10
-4.55246e-10
1.64276e-09
-2.40445e-11
-1.14666e-09
2.74281e-09
8.35043e-10
-1.61899e-09
-1.81143e-09
-2.25489e-10
4.35017e-10
-2.49118e-09
1.10159e-09
-2.87648e-09
1.23925e-09
-2.6015e-09
9.65038e-10
-1.92455e-09
5.55161e-10
2.13087e-10
7.10231e-10
4.38148e-09
-3.80167e-09
-1.85572e-09
7.85956e-10
-5.68248e-09
9.90979e-10
6.47151e-09
2.03993e-09
-4.14714e-09
1.54399e-10
2.83329e-09
1.47501e-10
8.83705e-10
7.16202e-10
1.26688e-09
-3.34854e-11
1.4057e-09
-3.38812e-10
-4.56753e-10
2.73576e-10
2.24485e-09
-7.25071e-10
5.64604e-10
-6.78678e-10
2.45138e-09
-1.19726e-09
1.89765e-09
-9.06906e-10
2.47206e-09
-1.35752e-09
2.06658e-09
-7.29736e-10
1.95832e-09
-1.14131e-09
2.09687e-09
-4.41809e-10
8.42716e-10
-6.32637e-10
2.06496e-09
-3.16718e-10
-1.5599e-09
3.49496e-09
9.91211e-10
-2.08355e-09
-1.89408e-09
-6.98119e-10
3.99664e-10
-2.33185e-09
9.39228e-10
-2.6879e-09
9.28016e-10
-2.44585e-09
6.33156e-10
-1.68249e-09
2.50152e-10
3.26188e-11
5.29013e-10
-3.55663e-09
3.87038e-09
-1.55679e-09
1.07781e-09
7.7823e-10
-5.39189e-09
5.62167e-09
1.72141e-09
-3.59268e-09
2.80992e-10
2.77205e-09
3.00759e-10
3.7797e-09
6.22645e-10
-1.06568e-09
1.05973e-09
7.7342e-10
1.70368e-09
2.42882e-10
1.48215e-09
-5.02137e-10
-4.41501e-10
5.21216e-10
2.11385e-09
-9.47677e-10
9.46584e-10
-6.30597e-10
2.1243e-09
-1.33557e-09
2.13336e-09
-8.0824e-10
2.04065e-09
-1.33237e-09
2.11978e-09
-7.03771e-10
1.5389e-09
-1.00655e-09
2.01488e-09
-5.06579e-10
5.04804e-10
-5.42744e-10
1.88835e-09
-3.1152e-10
-9.8293e-10
3.27759e-09
-4.49604e-10
-1.34025e-09
-1.34352e-09
-5.96606e-10
4.14451e-10
-1.90466e-09
-1.11935e-09
6.73926e-10
-2.10742e-09
9.35343e-10
-2.25984e-09
9.13728e-10
-1.79995e-09
6.5902e-10
3.68987e-10
1.0985e-09
-3.9775e-09
4.51016e-09
-2.23582e-09
1.0494e-09
1.62379e-09
-6.10867e-09
6.76982e-09
2.11142e-09
-4.79412e-09
6.89767e-10
3.05277e-09
6.29258e-10
3.97442e-09
1.05536e-09
-1.03042e-09
1.11786e-09
6.76661e-10
1.86577e-09
3.14128e-10
1.5283e-09
-5.56258e-10
-4.08811e-10
5.54635e-10
2.11029e-09
-9.69514e-10
9.49459e-10
-5.61944e-10
2.18316e-09
-1.28792e-09
1.98193e-09
-7.66886e-10
2.17872e-09
-1.17837e-09
1.82928e-09
-6.46483e-10
1.75881e-09
-7.74731e-10
1.66516e-09
-4.70513e-10
7.7087e-10
-3.70563e-10
1.64525e-09
-2.86739e-10
-9.22311e-10
3.44298e-09
-2.1509e-10
-1.53471e-09
-1.26872e-09
-3.72211e-10
3.48058e-10
-1.7321e-09
-8.2789e-10
5.16527e-10
-1.87949e-09
8.57373e-10
-2.06022e-09
9.07688e-10
-1.68045e-09
7.70489e-10
5.73316e-10
1.47075e-09
-4.04396e-09
4.6035e-09
-2.53899e-09
1.0018e-09
-6.21862e-09
2.01832e-09
7.20825e-09
2.19141e-09
-5.15973e-09
7.43451e-10
3.09591e-09
6.51942e-10
3.91199e-09
1.04777e-09
-9.14388e-10
1.06506e-09
7.61765e-10
1.85523e-09
2.29939e-10
1.48108e-09
-4.70889e-10
-3.95963e-10
4.50839e-10
2.22223e-09
-7.36477e-10
5.96133e-10
-6.00798e-10
2.41662e-09
-1.01429e-09
1.68901e-09
-8.69096e-10
2.61298e-09
-9.51233e-10
1.45627e-09
-7.01387e-10
2.38383e-09
-5.23353e-10
1.26158e-09
-5.09067e-10
1.79819e-09
-3.30886e-10
1.16405e-09
-2.47527e-10
8.84403e-10
-1.95439e-10
1.27992e-09
-1.70706e-10
-8.01596e-10
3.0802e-09
1.59859e-10
-1.55407e-09
-1.22415e-09
-5.26292e-11
2.79734e-10
-1.69223e-09
-3.05462e-10
4.42645e-10
-2.15714e-09
-3.93005e-10
3.34554e-10
-2.18571e-09
7.22591e-10
-2.21635e-09
6.81518e-10
-1.73147e-09
6.07939e-10
5.41343e-10
1.44782e-09
-4.19127e-09
4.74405e-09
-2.54132e-09
1.00006e-09
2.03787e-09
-6.35526e-09
7.30649e-09
2.08139e-09
-5.07293e-09
6.80161e-10
2.93369e-09
5.98608e-10
3.5886e-09
8.98717e-10
-9.57473e-10
9.20674e-10
7.8028e-10
1.62326e-09
2.64403e-10
1.31799e-09
-3.71723e-10
-4.13118e-10
3.87538e-10
1.85853e-09
-5.90901e-10
8.41005e-10
-7.90635e-10
2.14557e-09
-7.01038e-10
1.27535e-09
-8.61329e-10
2.18693e-09
-8.03145e-10
1.57677e-09
-8.14979e-10
1.76239e-09
-8.19057e-10
1.89275e-09
-6.49149e-10
8.36254e-10
-4.90238e-10
1.92535e-09
-5.08974e-10
-1.49217e-09
2.8357e-09
1.41014e-09
-1.91742e-09
-1.97441e-09
-2.61922e-10
2.53917e-10
-2.14407e-09
6.30517e-10
-2.33531e-09
5.52145e-10
-2.22949e-09
4.54726e-10
-1.73454e-09
3.70445e-10
3.63047e-10
1.26586e-09
-4.05352e-09
4.36088e-09
-2.08912e-09
8.03889e-10
-5.57415e-09
1.82957e-09
6.2957e-09
1.53513e-09
-4.21341e-09
8.53579e-10
2.26105e-09
4.6552e-10
3.43365e-09
1.06667e-09
-1.39825e-09
4.25213e-09
2.02434e-09
-1.56745e-09
4.4557e-09
2.46573e-09
-1.09249e-09
3.78906e-09
3.77958e-09
-1.22018e-09
3.4144e-09
3.23253e-09
-9.32507e-10
2.30767e-09
-1.05258e-09
2.62761e-09
-4.68298e-10
9.35662e-10
-6.26951e-10
2.27758e-09
-2.78627e-10
-1.48928e-09
4.42432e-09
-7.88442e-11
-1.92053e-09
-2.44985e-09
-1.38541e-10
4.72146e-10
-1.74903e-09
1.08231e-09
9.386e-10
-7.27961e-10
-5.49535e-10
-1.15105e-09
3.82414e-09
1.57375e-10
-1.89186e-09
-2.28297e-09
-8.52024e-11
4.89157e-10
-6.36511e-11
5.98953e-10
-3.63217e-09
2.69323e-09
3.22826e-11
8.43011e-10
-1.3306e-09
-2.21355e-10
-1.92038e-09
-1.97068e-09
1.15565e-12
5.86291e-10
-2.96281e-09
-2.75871e-10
9.62522e-10
-6.42217e-10
7.29375e-10
-4.26634e-09
3.1749e-09
-8.50653e-10
1.29986e-09
-1.69943e-09
-7.48807e-10
-2.0332e-09
-2.33437e-09
-5.40822e-10
8.03549e-10
-9.91343e-10
1.10667e-09
-4.55094e-09
2.89951e-09
-1.10999e-09
1.77007e-09
-2.05154e-09
-8.84941e-10
-2.06408e-09
-2.84472e-09
-5.69195e-10
7.65764e-10
-2.02033e-09
1.55121e-09
5.93411e-10
-9.83171e-10
-6.39367e-10
-9.67157e-10
3.09291e-09
-2.46822e-10
-1.28552e-09
-2.16765e-09
-3.40923e-10
5.58248e-10
-1.31675e-09
1.1938e-09
4.11615e-10
-6.12529e-10
-2.8078e-10
-6.07985e-10
1.82591e-09
-8.23058e-11
-7.23992e-10
-1.86049e-09
-5.72038e-11
6.97194e-10
-8.06605e-10
1.13168e-09
7.66838e-10
-7.01091e-10
6.43361e-10
-1.05702e-09
-2.35002e-10
1.4444e-09
6.14457e-10
1.4145e-09
-2.19336e-09
3.67987e-09
3.36367e-10
-3.94699e-09
-1.16968e-09
8.70619e-09
-3.04023e-10
-5.47886e-09
-5.10702e-09
-4.2379e-09
-8.48764e-09
1.14341e-08
2.45155e-09
-5.177e-09
-6.79809e-09
-9.2079e-09
1.21457e-08
3.93027e-09
-5.24463e-09
1.10678e-08
4.27517e-09
-8.50196e-09
-6.77339e-09
-4.40929e-09
8.41635e-09
3.76949e-09
-6.89828e-09
-6.1229e-09
-3.62387e-09
-5.03464e-09
5.62494e-09
3.89316e-09
-5.26886e-09
3.63011e-09
-3.68236e-09
2.49191e-09
-2.85876e-09
3.57604e-09
-4.18922e-09
3.82677e-09
3.27528e-09
-4.72819e-10
7.34669e-10
1.53106e-09
-2.9985e-09
1.00283e-09
-1.39805e-09
2.79694e-10
2.4953e-10
1.73979e-09
-8.47414e-10
1.08194e-10
-7.51043e-10
1.13782e-09
1.61101e-10
6.07938e-10
2.26518e-09
-1.72238e-11
-9.71955e-10
5.07528e-11
-1.70466e-09
4.17341e-09
-1.90288e-09
-2.05373e-10
-2.0144e-09
2.43003e-09
3.32486e-10
1.5653e-09
3.13649e-10
-1.32879e-09
3.27071e-09
-1.9703e-09
3.14424e-10
-1.30118e-09
1.80831e-09
4.31784e-10
1.31161e-09
3.19662e-09
2.28243e-10
-1.31579e-09
7.94502e-10
-1.76935e-09
4.5548e-09
-2.64684e-09
8.63983e-10
-1.97744e-09
2.22312e-09
9.48657e-10
2.07279e-09
3.61061e-09
5.51856e-10
-1.31009e-09
1.09235e-09
-1.5861e-09
4.70714e-09
-2.92166e-09
9.33973e-10
-1.62711e-09
2.28428e-09
8.59258e-10
2.30706e-09
3.61549e-09
4.80885e-10
-1.16015e-09
1.10793e-09
-1.51759e-09
4.6655e-09
-2.83115e-09
8.57295e-10
-1.58369e-09
2.10642e-09
8.96446e-10
2.34281e-09
3.31249e-09
5.50942e-10
-1.15839e-09
1.25245e-09
-1.25464e-09
3.428e-09
-2.38585e-09
1.22973e-09
-1.01941e-09
9.84137e-10
1.65428e-09
1.64318e-09
2.1919e-09
-6.58059e-10
-8.41691e-11
3.68434e-09
1.01852e-09
-1.44429e-09
5.29175e-09
2.06382e-09
-1.64687e-09
5.36872e-09
3.1926e-09
-8.03812e-10
1.1729e-09
4.42963e-10
2.35359e-09
1.39928e-09
1.37037e-09
-8.91429e-10
-3.96199e-10
1.09017e-09
1.61947e-09
-1.39854e-09
1.95244e-09
-8.02999e-10
1.54298e-09
-1.41404e-09
2.27578e-09
-7.85239e-10
7.74839e-10
-9.13836e-10
2.29014e-09
-6.08161e-10
-2.33413e-09
3.22369e-09
2.22429e-09
-2.33901e-09
-2.00657e-09
1.03618e-09
-2.22372e-09
1.43072e-09
-1.93416e-09
1.54445e-09
1.39696e-09
2.99841e-09
4.93252e-09
-4.57655e-09
-2.86754e-09
6.14403e-10
-5.2642e-09
3.67439e-09
6.84138e-09
1.75196e-09
-5.301e-09
2.08078e-09
2.27555e-09
1.181e-09
3.00123e-09
2.36036e-09
-1.13359e-09
3.13905e-09
3.39105e-09
-1.25308e-09
2.80802e-09
3.84133e-09
-1.22015e-09
1.7854e-09
-1.56049e-09
3.4988e-09
-9.15691e-10
5.93e-10
-1.16038e-09
2.90896e-09
-5.56181e-10
-2.35835e-09
3.09235e-09
1.7647e-09
-1.9057e-09
-2.52414e-09
-2.2717e-09
1.27711e-09
-2.64702e-09
1.78608e-09
2.33894e-09
-1.82169e-09
-9.39989e-10
8.10331e-10
-5.25691e-10
-2.17408e-10
-1.09176e-09
3.50583e-09
-9.69665e-11
-1.50677e-09
-2.00447e-09
-2.96039e-10
6.83055e-10
-8.6756e-10
1.46572e-09
-6.15697e-09
3.45168e-09
-1.14705e-10
1.95243e-09
-2.91807e-09
-2.29676e-10
-3.08807e-09
5.70961e-11
7.10428e-10
-4.06521e-09
2.9317e-09
1.48584e-10
1.04203e-09
-1.79964e-09
-8.74218e-11
-2.02077e-09
1.21493e-10
6.86885e-10
-1.9781e-09
1.03446e-09
4.98164e-10
5.66971e-10
-2.845e-09
2.36172e-11
8.75561e-10
-8.17056e-10
-8.87592e-10
-1.36172e-09
-1.79936e-09
4.23724e-10
5.5973e-10
-2.71545e-10
1.37119e-09
-2.4533e-09
1.6001e-09
-3.19809e-10
9.01454e-10
-3.88709e-09
-7.3583e-10
1.31896e-09
-1.83616e-09
-9.0212e-10
-1.89762e-09
-4.86275e-10
1.0088e-09
-2.52204e-09
1.07104e-09
1.7494e-10
7.89777e-10
-4.52907e-09
-9.38836e-10
1.83587e-09
-2.36728e-09
-1.03043e-09
-2.01631e-09
-6.23627e-10
7.80052e-10
-2.80928e-09
1.88528e-09
-4.9584e-10
7.96212e-10
-1.29319e-09
-5.19736e-10
-1.24318e-09
-2.69447e-10
4.61244e-10
-1.417e-09
7.07139e-10
1.58235e-11
4.24594e-10
-6.90147e-10
-2.57355e-10
-5.51787e-10
-8.90074e-11
7.86083e-10
-9.89105e-10
3.8215e-10
-1.72125e-10
6.90087e-10
2.89879e-10
4.29567e-10
-2.44253e-10
6.48971e-10
1.50557e-09
9.40226e-10
4.29376e-09
4.23735e-10
-3.4713e-10
6.14373e-10
-6.42404e-11
1.03416e-09
6.68431e-10
-6.07931e-10
7.87628e-10
5.69491e-10
2.51137e-10
4.83618e-10
-6.4675e-10
3.77228e-10
-6.51212e-10
-6.40447e-10
1.08103e-09
-2.93727e-10
8.25418e-11
-4.92626e-10
2.41495e-10
2.71812e-10
4.12854e-10
-5.53534e-10
6.58731e-11
3.16292e-10
1.2421e-09
-5.09949e-10
-2.11111e-10
6.47557e-10
4.27389e-10
3.28247e-10
-4.77488e-10
-7.95061e-10
8.52754e-10
-6.24214e-10
-2.78648e-10
1.17262e-09
-1.39379e-09
5.881e-10
4.85817e-10
3.0343e-09
-1.41804e-09
-6.49009e-10
4.80448e-10
9.1603e-10
8.06785e-10
-1.37377e-09
4.83353e-10
5.64077e-10
1.91917e-09
-6.61084e-10
-1.36874e-10
1.00099e-09
6.97225e-10
6.52743e-10
-4.20244e-10
-9.97358e-10
2.15392e-09
-1.76654e-09
-1.10398e-10
1.31248e-09
-1.57297e-09
1.14899e-09
1.26542e-09
3.15309e-09
-1.01533e-09
3.86998e-11
1.20024e-09
1.57205e-09
1.32946e-09
-1.9871e-10
-9.70851e-10
2.07324e-09
1.10456e-11
-7.10953e-10
1.40196e-09
-2.08296e-09
1.36215e-09
1.39209e-09
3.20737e-09
-8.24482e-10
-4.69545e-11
1.21929e-09
1.45111e-09
1.39624e-09
-2.96971e-10
-8.33997e-10
1.94141e-09
-1.69376e-10
-6.17876e-10
1.32128e-09
-2.00725e-09
1.37453e-09
1.25286e-09
2.77901e-09
-6.08516e-10
8.1001e-12
1.03946e-09
1.28294e-09
1.35306e-09
-7.03692e-11
-7.25069e-10
1.76207e-09
1.82177e-10
-7.31662e-10
1.0297e-09
-1.66372e-09
1.25575e-09
1.14035e-09
3.06961e-09
-7.49607e-10
-6.05613e-11
3.09507e-09
1.3283e-09
-1.15669e-09
-1.97069e-10
1.21289e-09
2.08216e-09
2.00794e-09
-2.20791e-09
2.96479e-09
-8.06875e-10
7.35066e-11
4.74119e-09
1.73931e-09
-1.45188e-09
3.32514e-09
-6.92333e-10
3.94183e-09
-3.19453e-09
2.60707e-09
-2.9216e-11
1.16688e-09
2.17964e-09
2.6761e-09
2.25093e-09
-4.05918e-10
5.02872e-10
3.53533e-09
2.10133e-09
-1.02536e-09
4.37434e-09
3.78425e-09
-1.2322e-09
4.38562e-09
5.10546e-09
-1.2754e-09
3.47931e-09
5.62889e-09
-1.22376e-09
2.35576e-09
5.23389e-09
-1.20138e-09
4.77612e-10
-1.34071e-09
4.15441e-09
-9.35549e-10
-2.80462e-09
3.90529e-09
1.53931e-09
-2.16237e-09
-2.80348e-09
1.7505e-09
8.53315e-10
-1.21551e-09
-6.76586e-10
-1.57133e-09
4.42339e-09
-2.41217e-10
-1.75753e-09
-3.38633e-10
1.05761e-09
-4.05006e-09
2.48683e-09
-8.48626e-11
1.30945e-09
-1.9515e-09
-2.85485e-10
-1.91004e-09
7.89233e-12
1.19625e-09
-3.02298e-09
1.25728e-09
7.61895e-10
1.01169e-09
-5.60838e-09
3.07945e-10
2.16274e-09
-2.35144e-10
-2.67121e-09
-1.5215e-09
3.01571e-09
-6.30789e-10
-1.09856e-09
-2.92612e-09
7.61472e-10
7.91735e-10
-7.82032e-10
-1.19704e-09
-1.09224e-09
8.98007e-10
-8.96277e-11
-1.01108e-09
1.71331e-09
-6.945e-10
-1.09998e-09
-1.7459e-09
2.14857e-10
5.43577e-10
-8.45449e-10
-2.71029e-09
3.48737e-10
1.46109e-09
-1.41047e-09
1.0114e-10
-7.55039e-10
-1.76563e-09
-5.79944e-10
1.04032e-09
-5.50865e-10
-6.64548e-10
-1.20967e-09
-1.185e-11
3.2177e-10
-2.85237e-09
-4.94367e-11
9.56297e-10
-1.46975e-09
-1.2137e-09
-2.16443e-09
8.52256e-11
7.84383e-10
-1.4779e-09
2.68673e-09
-1.93042e-09
-1.44284e-09
-3.29327e-09
-1.26353e-10
1.00288e-09
-9.85654e-10
-1.45277e-09
-8.50916e-10
1.34361e-09
-8.33103e-10
-6.45242e-10
-1.85315e-09
4.73375e-11
4.59055e-10
-9.73151e-10
-6.92595e-10
-1.6867e-09
-1.87812e-11
7.48166e-10
-7.35631e-10
1.68031e-09
-1.25661e-09
-1.37477e-09
-2.25384e-10
-3.85437e-10
-9.63365e-11
-1.35662e-10
8.53861e-11
-7.87683e-11
-4.84075e-11
4.28924e-10
-4.71623e-10
-1.58152e-10
4.45694e-10
-1.67867e-10
-6.75298e-11
7.03961e-10
1.0232e-09
-3.54692e-10
1.4654e-09
6.95853e-11
3.99558e-11
4.54558e-10
-8.78611e-11
5.84116e-10
-2.67404e-10
2.07809e-10
3.42264e-14
4.92953e-10
-1.16688e-10
2.51838e-10
5.99677e-10
-2.93491e-11
7.34448e-10
5.66709e-10
-3.809e-10
4.52959e-10
1.99765e-10
4.34562e-10
-3.23753e-10
4.8412e-11
8.72291e-10
6.33552e-10
-9.88757e-10
4.90193e-10
-2.62698e-10
9.12436e-11
2.71404e-10
1.10728e-10
-1.2587e-10
2.33914e-10
5.54336e-10
-4.33713e-10
7.00493e-11
8.07276e-11
7.58121e-10
2.66428e-10
1.22298e-10
-5.92519e-10
-2.77199e-10
-9.82684e-10
1.30032e-09
-5.44333e-10
-7.66768e-10
1.9704e-09
-7.80339e-10
-1.45691e-09
1.56716e-09
1.65591e-09
-1.60876e-09
1.02281e-09
9.00435e-10
1.10913e-09
8.74576e-10
-1.70157e-09
2.33288e-09
-1.55691e-09
-7.65454e-10
1.09862e-09
4.82693e-09
-4.04653e-09
3.1412e-09
-1.58874e-09
2.31843e-09
-2.75243e-09
2.3834e-09
2.87753e-09
2.51967e-09
-3.9952e-09
2.22099e-09
4.04985e-09
-1.69811e-09
-9.67374e-10
1.1353e-09
8.98197e-10
-7.41797e-10
1.94387e-09
1.94958e-09
1.47364e-09
1.14179e-09
1.29656e-09
-3.0138e-09
2.4714e-10
-8.45413e-10
2.84275e-09
-6.05631e-10
-8.48189e-10
4.62158e-09
-1.46633e-09
1.1258e-09
-1.43829e-09
9.9941e-10
-8.41223e-10
2.23436e-09
2.22904e-09
1.51976e-09
1.17282e-09
1.43646e-09
-3.12962e-09
1.51554e-10
-8.08415e-10
2.67534e-09
-5.94721e-10
-7.56239e-10
4.32626e-09
-1.31935e-09
9.65629e-10
-1.29718e-09
8.12283e-10
-8.12899e-10
2.26187e-09
2.06502e-09
1.15952e-09
1.04008e-09
1.37277e-09
-2.76009e-09
2.81077e-10
-6.03093e-10
2.48515e-09
-4.32199e-10
-7.31785e-10
3.99394e-09
-7.64556e-10
-1.31614e-09
5.71919e-10
4.69558e-10
-3.68976e-10
2.06317e-09
1.8302e-09
7.37601e-10
8.31437e-10
9.89474e-10
-2.08896e-09
2.14046e-09
1.91913e-10
-2.6646e-10
2.8198e-09
5.02652e-10
-7.51526e-10
-4.3046e-10
1.35696e-09
2.15369e-09
2.05354e-09
-2.74439e-09
4.19399e-10
-5.17648e-10
2.64218e-09
1.07911e-09
-1.1482e-09
1.09976e-09
-1.62499e-09
1.58136e-09
1.58604e-09
3.38853e-09
-6.63055e-11
3.84616e-10
3.14603e-09
2.44563e-09
-5.0319e-10
-1.69993e-09
1.1479e-09
2.26759e-09
2.90298e-09
-3.17244e-09
3.0894e-09
-4.96405e-10
6.56244e-10
4.60299e-09
3.22883e-09
-9.58159e-10
5.49948e-09
5.16911e-09
-9.60133e-10
4.84139e-09
6.50364e-09
-2.16668e-10
3.99639e-09
6.68398e-09
-6.0508e-10
3.24307e-09
5.86971e-09
-9.61979e-10
1.91327e-09
-2.40324e-09
4.45386e-09
-7.20818e-10
3.12733e-10
-9.64476e-10
2.88174e-09
-3.16714e-10
-1.28411e-09
3.34605e-09
-7.0392e-10
-1.04528e-09
-2.3198e-09
-8.82779e-10
9.53994e-10
-3.36579e-09
2.54805e-09
7.32209e-10
-1.70245e-09
-8.56243e-10
-1.93763e-09
4.76933e-09
-2.97082e-10
-1.80241e-09
-5.03687e-10
1.28701e-09
-4.73245e-09
2.81932e-09
-1.58064e-10
1.56751e-09
-3.18078e-10
-2.16876e-09
-1.45842e-09
2.9372e-09
-6.80465e-10
-1.1164e-09
-3.40095e-09
8.15059e-10
1.04262e-09
-1.07501e-09
-1.35414e-09
-1.67075e-09
1.3812e-09
-2.35626e-11
-1.75986e-09
-9.64168e-10
2.52222e-09
-1.46894e-09
5.71276e-10
9.9252e-10
-2.62191e-09
2.1442e-09
8.48163e-11
-2.50497e-09
3.77916e-09
-3.84969e-09
-4.6394e-11
-2.01589e-09
-3.58393e-10
-1.51935e-09
-8.55853e-10
1.81136e-09
-1.45205e-09
2.58419e-10
8.33554e-10
-1.86277e-09
1.01634e-09
2.48996e-10
-1.21348e-09
1.64255e-09
-2.54063e-09
2.48785e-10
-1.81926e-09
1.26132e-10
-2.4496e-09
5.63503e-11
9.22716e-10
-1.43219e-09
1.83705e-09
-1.81415e-09
-5.85054e-10
7.4645e-10
-2.13132e-09
5.37733e-10
-1.48528e-09
3.37503e-10
-2.59605e-09
-1.96975e-10
1.25831e-09
-1.71358e-09
-1.12191e-09
1.65018e-09
-1.41075e-09
-1.25037e-11
1.07085e-09
-2.36662e-09
4.74405e-10
7.57785e-10
-1.17395e-09
4.78028e-10
-7.92305e-10
-8.78402e-10
3.30758e-10
-2.0424e-09
-1.67378e-10
7.05058e-10
-3.03678e-09
1.31076e-09
-1.98164e-09
-1.75394e-09
-8.00589e-10
9.56188e-10
-3.25565e-09
1.11841e-09
-2.04975e-09
4.63388e-10
-1.12126e-09
-9.64786e-10
8.09982e-10
-7.73678e-10
-1.77821e-10
7.18088e-10
-2.10475e-09
3.15159e-10
6.46983e-10
-2.56559e-11
-1.11394e-10
-1.14764e-09
-8.20054e-10
-6.84134e-10
-5.12746e-10
-1.39746e-09
-2.24997e-10
7.80162e-10
-7.46915e-10
-7.04273e-10
-1.38218e-11
-1.92045e-10
3.90485e-11
4.29254e-10
-1.41145e-09
4.57496e-10
3.13597e-10
4.48312e-10
1.06519e-09
-2.40724e-10
1.33103e-09
-1.27918e-10
9.90293e-10
-1.69763e-10
-1.56923e-10
3.26656e-10
7.32759e-10
8.77915e-11
3.46652e-10
-4.89907e-11
1.04581e-09
7.57833e-10
-9.64055e-10
-3.71088e-10
1.76873e-10
1.35861e-09
-1.18615e-10
2.28685e-11
3.80019e-10
-1.74312e-10
4.4523e-10
-1.79416e-10
8.98715e-10
9.42625e-10
-1.01611e-09
-4.61231e-11
3.37472e-10
8.26871e-10
-2.19529e-10
6.71863e-10
-3.47149e-10
5.91269e-10
1.99529e-10
-8.21198e-12
6.61062e-10
-2.90232e-10
-1.0364e-09
1.25683e-09
-3.02209e-10
8.59522e-10
4.23467e-10
-3.19729e-10
2.36737e-11
5.56241e-10
-1.8628e-10
-6.95843e-10
2.51924e-11
-4.4182e-10
1.22813e-09
-7.87825e-10
7.52918e-10
3.38284e-10
-3.46224e-10
-7.19792e-10
-7.47893e-11
-1.56139e-09
1.07408e-09
1.02446e-09
-1.83505e-09
2.67585e-09
7.63894e-10
-3.55371e-09
1.18805e-09
4.42574e-09
5.95928e-11
-5.37632e-09
3.56682e-09
3.14338e-09
-2.11223e-09
1.51743e-09
1.87715e-09
2.69333e-09
-4.82531e-09
2.52292e-09
3.85941e-09
1.80413e-09
-8.39781e-10
-2.13043e-09
4.97832e-09
3.89283e-09
-3.12358e-09
-1.88817e-09
-8.65605e-10
2.87132e-09
2.08279e-09
8.8982e-10
-3.6468e-10
1.6331e-09
1.7588e-09
1.32951e-09
-4.16571e-09
1.72972e-09
2.89337e-09
9.66619e-10
-8.9737e-10
4.15202e-09
-1.26095e-09
1.45684e-09
-1.45452e-09
4.01897e-10
7.58579e-10
1.22347e-09
1.76808e-09
2.26947e-09
2.4565e-09
-5.16528e-09
3.28614e-09
-6.45613e-10
-1.13014e-09
7.59091e-10
4.32863e-09
-1.21339e-09
-1.13348e-09
1.30439e-09
4.67582e-10
1.92648e-09
1.15551e-09
7.79069e-10
2.08161e-09
-4.90647e-09
2.47956e-09
2.96894e-09
-6.26104e-10
-9.00824e-10
6.39609e-10
3.90102e-09
-9.29637e-10
-8.91114e-10
8.88695e-10
8.24429e-11
1.88615e-09
1.0941e-09
8.3834e-10
2.04466e-09
-4.7887e-09
2.45752e-09
3.089e-09
-3.50241e-10
-1.00119e-09
3.071e-10
4.19528e-09
-6.29763e-10
-9.13618e-10
4.37119e-10
7.68614e-11
1.95328e-09
1.16623e-09
9.98922e-10
3.90171e-10
-4.43199e-09
2.23451e-09
1.88418e-09
1.09747e-09
1.15918e-09
-3.33428e-09
1.4678e-09
6.28298e-10
-7.66978e-11
2.65203e-09
-1.35842e-10
-7.287e-10
4.31226e-09
-2.90181e-10
-1.32563e-09
-4.44216e-11
2.64258e-10
-1.20353e-10
2.02916e-09
2.1392e-09
6.5709e-10
1.15206e-09
9.71334e-10
-2.51622e-09
2.70519e-09
4.80448e-10
-8.29152e-11
3.3674e-09
1.46335e-09
-4.49716e-10
-1.67583e-09
1.82717e-09
2.54441e-09
-3.82009e-09
2.8159e-09
3.64173e-09
1.79452e-09
-3.80249e-10
5.61292e-09
3.81966e-09
-6.21733e-10
6.24497e-09
5.74831e-09
1.23287e-10
1.3371e-09
-3.6234e-10
2.76852e-09
2.50169e-09
1.31709e-09
-1.53765e-09
-2.4254e-10
1.8002e-09
1.30875e-09
-2.36441e-09
2.98838e-09
-6.15626e-10
8.94185e-10
-2.13073e-09
3.27522e-09
-7.29931e-10
-4.34448e-11
-1.13854e-09
2.69529e-09
-6.19112e-10
-1.63375e-09
2.37508e-09
3.38137e-10
-1.1229e-09
-1.4743e-09
1.58374e-09
-1.87918e-09
2.72802e-09
-1.68089e-09
3.30702e-09
3.1031e-09
5.77939e-09
-5.21074e-09
5.06042e-09
-3.39809e-09
4.18145e-10
-5.22619e-09
6.41121e-09
7.57431e-09
2.10219e-09
-5.62596e-09
2.62737e-09
2.32763e-09
1.99292e-09
2.09676e-09
3.37485e-09
-1.55597e-10
1.66135e-09
4.19151e-09
-4.80872e-10
1.14079e-09
4.05462e-09
-8.38771e-10
7.03657e-11
-1.39814e-09
3.0375e-09
-5.68932e-10
-1.99711e-09
3.11759e-09
4.23224e-10
-1.47334e-09
-2.77058e-09
1.75042e-09
5.10806e-11
-1.49179e-09
-9.91729e-10
-1.49038e-09
3.42695e-09
-8.2363e-10
-1.06185e-09
-9.6747e-10
1.33135e-09
-4.96574e-09
2.70624e-09
-6.78772e-10
1.97081e-09
-2.87704e-09
-8.32574e-10
-1.96004e-09
-6.09492e-10
1.61901e-09
-4.88585e-09
2.81348e-09
-2.70236e-10
1.73312e-09
-3.2838e-10
-2.03523e-09
-1.44862e-09
-7.08204e-10
2.74587e-09
-9.17428e-10
4.50162e-10
8.80357e-10
-3.21318e-09
2.73829e-09
2.1686e-10
-2.55811e-09
2.03684e-09
-3.34306e-09
6.51146e-10
-2.17907e-09
-2.44454e-10
-2.06065e-09
-9.76772e-10
2.50496e-09
-1.6466e-09
5.34285e-10
1.30848e-09
-2.34294e-09
1.66721e-09
2.33243e-10
-4.08997e-09
3.29609e-09
5.95154e-10
-5.28185e-09
4.47203e-09
4.99018e-10
-2.19888e-09
1.79313e-09
-2.07763e-09
-2.79847e-09
-1.79498e-09
-2.44222e-09
-2.68607e-09
1.38778e-09
5.19646e-10
-3.48351e-09
1.97521e-09
4.64775e-10
-8.60357e-10
-2.33453e-10
-8.39598e-10
-1.5501e-09
-1.31241e-09
-7.87917e-10
-1.30066e-09
-6.09234e-11
6.41906e-10
-1.7834e-09
5.46158e-10
3.8839e-10
-2.6671e-09
8.64917e-10
7.65237e-10
-5.33865e-10
-3.57372e-10
-6.89548e-10
-1.08632e-09
-1.05628e-09
-6.80281e-10
-9.28633e-10
-1.25927e-10
5.22844e-10
-1.54823e-09
3.29748e-10
4.12264e-10
-2.71636e-09
6.22862e-10
1.01965e-09
-7.9158e-10
-4.18149e-10
-1.02861e-09
-4.28501e-10
8.30511e-10
-1.72572e-09
5.3212e-10
-1.9934e-09
6.05208e-10
-3.41278e-09
9.85392e-10
1.39017e-09
-5.96716e-10
-3.66408e-10
-1.15741e-09
-1.29225e-09
-1.67946e-09
-1.36293e-09
-2.58602e-09
5.46711e-10
6.75006e-10
-8.4213e-10
-7.73018e-10
-1.08226e-09
1.11466e-10
4.70481e-10
-1.64825e-09
2.24179e-10
-1.73544e-09
4.74276e-10
-7.00162e-10
-6.65564e-10
-1.07401e-09
-1.94021e-11
-2.47759e-10
-3.93965e-10
-2.9716e-10
-1.56516e-10
6.00124e-10
-1.65844e-10
-4.51802e-10
1.3991e-09
-7.86966e-10
1.05349e-09
2.06407e-10
-4.72218e-10
1.29788e-09
1.31733e-09
-7.18212e-10
-5.06872e-10
6.90311e-10
1.34657e-10
-5.00879e-10
1.10888e-09
1.81817e-10
1.10523e-09
5.15581e-11
-2.80837e-10
3.88041e-10
4.5842e-11
9.52181e-10
4.80911e-12
4.92892e-10
-4.579e-11
9.11529e-10
2.7977e-11
1.85962e-09
-1.28753e-09
8.32328e-10
-1.16067e-09
1.69128e-09
1.92458e-09
-5.95587e-10
-1.16574e-10
6.02894e-10
-2.88399e-10
1.11493e-09
4.85876e-11
1.54343e-09
1.83211e-09
-1.65775e-09
-1.05674e-09
-3.3567e-10
1.772e-09
1.16382e-09
-3.20579e-10
1.6336e-09
-3.129e-09
1.30156e-10
5.89892e-09
2.54494e-09
-7.51328e-09
3.67292e-10
5.49992e-11
-3.26449e-10
2.5165e-09
1.81746e-10
3.47208e-09
-3.303e-10
1.17709e-09
9.80183e-10
1.4596e-09
1.9054e-09
3.24776e-09
-6.13113e-10
-3.53905e-10
1.72128e-09
1.15113e-09
-3.78833e-10
-2.13502e-09
1.82377e-10
1.71836e-09
-1.39198e-09
-3.19546e-09
2.75311e-09
1.45549e-09
-4.03235e-10
-8.91843e-10
-6.40883e-10
5.43992e-10
2.18555e-10
-5.43808e-10
9.46492e-10
1.05789e-09
1.6379e-09
-1.71334e-09
8.64585e-10
-1.85932e-09
1.06843e-09
4.02142e-09
-7.88688e-11
-4.1464e-09
2.00982e-09
2.57604e-09
-4.03811e-09
5.20665e-10
2.2094e-09
2.35627e-09
-5.18158e-09
2.62572e-09
3.18341e-09
2.93419e-09
6.31355e-10
-4.53957e-09
1.81588e-09
2.46596e-09
-9.49141e-11
-1.00352e-09
1.01498e-09
1.85928e-09
-7.69482e-10
-2.88902e-10
1.67555e-09
3.53285e-09
-2.77225e-09
-1.42117e-09
1.59543e-09
-2.22422e-10
1.08415e-09
2.5663e-09
1.47783e-09
-1.8087e-09
8.12477e-10
1.67416e-09
4.06199e-10
-2.15937e-09
1.50189e-09
7.08047e-10
-3.42254e-09
2.10765e-09
1.62147e-09
1.47837e-09
3.89531e-10
3.3337e-09
-2.64492e-09
-2.33401e-09
2.57512e-09
3.42201e-09
-5.55783e-10
1.96623e-09
2.95591e-09
-8.45136e-10
7.57214e-10
2.60988e-09
-5.88392e-10
8.10109e-10
3.8484e-09
-2.22714e-09
-1.2749e-09
-1.03886e-09
2.75745e-09
6.80693e-10
-5.54953e-09
5.65721e-09
-1.75809e-09
-1.02047e-08
-4.08382e-09
2.22091e-09
7.99588e-09
-1.18456e-08
-6.24643e-09
-5.60138e-09
8.04651e-09
5.44225e-09
-1.00328e-08
-5.50824e-09
7.92974e-09
-1.04493e-08
6.21485e-09
-8.12076e-09
-5.28332e-09
9.50835e-09
7.55166e-09
-1.36887e-08
-6.8032e-09
-6.30452e-09
1.01332e-08
8.02284e-09
-1.31691e-08
-5.06052e-09
-1.0814e-08
-3.26326e-09
6.95825e-09
-1.9929e-09
-2.58859e-09
-8.2425e-09
4.20976e-09
-1.31551e-09
-4.42006e-09
-5.53553e-10
7.60341e-09
9.96988e-10
1.85471e-09
-1.1217e-08
2.87548e-09
-1.54273e-10
-7.3611e-09
3.64452e-09
1.63173e-11
-1.139e-09
2.56484e-09
-4.36415e-09
8.40706e-09
4.70556e-09
-1.09107e-08
5.4469e-10
3.29551e-09
4.48981e-09
4.50176e-10
2.28442e-09
4.45072e-09
-7.05115e-10
9.53947e-10
-3.6868e-10
2.40425e-09
8.1225e-11
1.10273e-10
1.85648e-09
3.14579e-10
2.45476e-09
1.06479e-09
-3.75293e-09
4.84292e-10
2.75045e-09
2.25371e-09
-5.17388e-09
1.29075e-09
2.80533e-09
4.09629e-10
1.56317e-09
3.17106e-09
-8.6745e-10
-2.01188e-09
2.28027e-09
3.21405e-09
-1.91923e-09
-8.33735e-10
4.26257e-09
-3.31667e-09
-2.12406e-09
2.69671e-10
3.5692e-09
-2.82679e-09
-1.84581e-09
3.1094e-10
9.77396e-10
-1.11359e-09
9.90804e-10
1.55537e-10
-1.90522e-09
1.0698e-09
6.29228e-10
2.90535e-11
3.72266e-10
-3.97517e-11
-5.02404e-10
-1.1822e-09
2.00546e-11
-4.0746e-10
-8.59526e-11
-3.44387e-10
-3.98444e-11
8.00209e-10
-1.30464e-10
-1.42163e-09
-7.36749e-10
9.73214e-10
1.43751e-09
-8.73775e-10
8.95815e-10
3.66638e-10
-2.42433e-09
1.2302e-09
8.62738e-10
1.22723e-09
2.73863e-10
2.34944e-09
2.11439e-09
-7.11059e-11
2.75826e-09
-1.08852e-09
4.3142e-10
6.27213e-10
1.26747e-09
2.78858e-09
2.44024e-10
-1.81929e-09
1.2643e-09
3.07865e-09
2.64897e-10
-3.55708e-10
-7.49668e-10
6.03406e-10
-3.47875e-10
-1.07546e-11
6.93231e-10
1.06589e-09
8.3144e-11
3.58138e-09
-8.11153e-10
-2.16252e-09
4.58168e-10
-2.00619e-09
1.78615e-09
4.52878e-09
-7.27375e-10
3.45941e-09
-8.47517e-10
-2.92682e-09
-1.3617e-09
1.92015e-09
3.04328e-09
-1.42351e-10
-5.59345e-10
1.35678e-09
-2.34571e-10
1.63257e-09
8.04014e-10
1.63747e-09
4.06137e-10
5.69121e-10
2.42589e-09
-9.17469e-10
-2.10173e-09
2.23076e-09
-6.29803e-10
5.85736e-10
2.30174e-09
1.68185e-10
2.48818e-09
1.2809e-09
5.83694e-10
-3.5031e-11
1.68915e-09
2.50342e-10
4.66839e-09
1.31995e-09
1.2312e-09
1.11425e-10
2.69955e-09
6.26204e-10
-4.7535e-10
6.30538e-09
8.88049e-10
-5.48687e-09
-4.44733e-10
-2.58431e-09
2.17321e-11
2.53194e-09
2.52224e-10
3.2651e-10
1.43128e-09
4.61186e-10
2.21947e-09
3.21991e-10
1.27433e-09
1.4314e-09
5.60777e-10
-2.82367e-09
3.15112e-09
1.41288e-09
-4.65984e-10
6.76551e-09
-4.13786e-09
9.90624e-10
5.26121e-09
3.66479e-09
4.74135e-10
2.03437e-09
-3.04172e-09
1.52385e-09
-2.42775e-09
2.32799e-09
7.13942e-10
-1.40022e-10
-3.20424e-09
1.43155e-09
6.18592e-10
-1.27362e-09
-1.16178e-09
2.56598e-09
-1.03925e-09
-1.53969e-10
1.86373e-09
-1.89416e-09
1.04315e-09
-1.17206e-09
1.6474e-09
1.14079e-09
-7.71855e-10
-1.65094e-09
2.34624e-09
1.46069e-09
-5.08595e-10
1.20307e-09
-1.86305e-10
-1.09925e-09
1.70411e-09
6.57967e-10
-5.97619e-11
4.0232e-10
1.47557e-09
-1.18084e-09
5.926e-10
1.011e-10
8.89462e-10
1.1455e-10
2.42387e-09
4.71864e-10
4.32154e-09
1.3527e-09
-1.48708e-09
1.5106e-09
1.03538e-09
-7.05948e-10
1.2182e-09
1.57115e-09
-5.72806e-10
1.41152e-09
4.14293e-10
-1.22348e-09
7.19295e-10
1.43521e-09
4.80471e-10
-1.44602e-09
3.18882e-09
1.12369e-10
4.37732e-09
-5.1166e-10
-3.52555e-09
-2.01454e-09
1.76117e-09
4.34527e-09
2.85384e-10
4.31422e-09
1.20141e-10
-1.35618e-09
1.66971e-09
3.78958e-09
2.11068e-10
-9.48484e-10