/*--------------------------------*- C++ -*----------------------------------*\
| =========                 |                                                 |
| \\      /  F ield         | OpenFOAM: The Open Source CFD Toolbox           |
|  \\    /   O peration     | Version:  5.0                                   |
|   \\  /    A nd           | Web:      www.OpenFOAM.org                      |
|    \\/     M anipulation  |                                                 |
\*---------------------------------------------------------------------------*/
FoamFile
{
    version     2.0;
    format      ascii;
    class       surfaceScalarField;
    location    "60";
    object      phiRest;
}
// * * * * * * * * * * * * * * * * * * * * * * * * * * * * * * * * * * * * * //

dimensions      [0 3 -1 0 0 0 0];

internalField   nonuniform List<scalar> 
101002
(
7.99346e-11
1.14665e-10
1.01319e-10
-1.44321e-11
1.24375e-10
-6.76011e-11
-1.15109e-10
1.38262e-10
1.53759e-10
-1.63843e-10
-1.03631e-10
2.38079e-10
1.5744e-10
-1.96799e-10
3.04346e-10
-1.1124e-10
1.14906e-10
-1.86676e-10
3.14356e-10
-8.51544e-11
1.19382e-11
-1.03379e-10
2.48189e-10
-4.18491e-11
-1.89729e-10
2.76783e-10
3.57062e-11
-1.10829e-10
-1.54067e-10
2.49281e-10
-1.62155e-10
2.4029e-10
-1.52948e-10
1.97114e-10
1.61309e-10
-3.30977e-10
6.87481e-10
4.23823e-10
-7.22686e-10
-1.35393e-10
3.91967e-10
-5.53862e-10
-1.2277e-11
-2.52659e-10
1.0044e-10
-2.25544e-10
-5.54327e-12
1.18379e-10
1.7815e-10
-8.08497e-11
7.91976e-11
-7.60646e-11
3.20832e-10
1.68749e-10
-1.7319e-10
3.9476e-10
3.70728e-10
-2.06618e-10
4.44289e-10
4.78366e-10
-2.23575e-10
4.05036e-10
5.52075e-10
-1.98492e-10
2.84233e-10
4.92151e-10
-1.23177e-10
8.07201e-11
-1.14746e-10
3.38022e-10
-1.97776e-11
-2.49473e-10
3.96656e-10
1.3233e-10
-1.98798e-10
-3.14865e-10
2.27453e-10
2.26503e-12
-2.89053e-10
7.62096e-12
-2.60806e-10
-5.09005e-11
3.43799e-10
-2.98353e-11
4.05862e-10
3.26666e-10
1.7878e-10
5.588e-10
-6.10177e-11
2.80255e-10
5.65356e-11
-2.01619e-10
2.38138e-10
8.12171e-11
3.8638e-10
4.27179e-10
1.20598e-10
1.91605e-10
4.27286e-11
2.1369e-10
1.54559e-10
-9.60201e-11
7.10138e-11
6.28934e-11
-3.47798e-11
1.14554e-10
1.36129e-10
-5.01915e-11
-1.18178e-10
1.0325e-10
-1.57351e-10
-2.29852e-10
9.35521e-10
-7.98616e-10
5.65435e-10
-1.86167e-10
4.56049e-10
-4.87056e-10
-7.44169e-11
9.87841e-11
4.87063e-10
5.13353e-10
-5.68741e-10
1.4214e-10
1.35157e-10
-2.37165e-10
2.39376e-10
1.04793e-10
7.10458e-11
8.19334e-11
1.64322e-10
-2.93093e-10
8.53505e-11
1.14464e-10
3.09505e-10
6.84191e-11
-1.34408e-10
5.41539e-10
1.41633e-10
-2.04934e-10
1.58392e-10
8.66451e-11
2.33885e-10
6.26171e-11
2.38597e-10
-9.36427e-11
-6.7661e-11
8.10909e-11
3.09173e-10
-2.07731e-10
2.90113e-10
-1.52971e-10
3.84147e-10
-2.87845e-10
3.96581e-10
-1.83719e-10
3.77916e-10
-3.02201e-10
4.79471e-10
-1.71044e-10
2.78487e-10
-2.33015e-10
4.71366e-10
-1.38925e-10
8.85054e-11
-1.209e-10
4.10636e-10
-9.97571e-11
-2.13175e-10
5.17848e-10
8.37924e-11
-2.99962e-10
-2.61097e-10
-1.4683e-10
7.38551e-11
-3.43572e-10
1.87503e-10
-4.01372e-10
2.47763e-10
-3.68977e-10
2.31849e-10
-2.66549e-10
1.68217e-10
9.71944e-11
2.88315e-10
7.40409e-10
-7.65331e-10
-3.18851e-10
1.44281e-10
-1.13033e-09
3.70706e-10
1.2225e-09
3.25221e-10
-6.94584e-10
1.13128e-10
4.62366e-10
8.82194e-11
1.38984e-10
7.84503e-11
1.95759e-10
4.91734e-11
2.13771e-10
-7.61201e-11
-8.48051e-11
8.61366e-11
3.29664e-10
-1.71908e-10
1.90123e-10
-1.34112e-10
3.62147e-10
-2.689e-10
4.19356e-10
-1.82942e-10
3.78462e-10
-3.0901e-10
4.89451e-10
-1.96755e-10
3.13905e-10
-2.73016e-10
5.08217e-10
-1.70641e-10
1.1336e-10
-1.52162e-10
4.86153e-10
-1.33444e-10
-3.085e-10
6.97016e-10
1.28158e-10
-4.03317e-10
-3.16608e-10
-2.28878e-10
8.48248e-11
-3.64629e-10
1.85649e-10
-4.05701e-10
2.03434e-10
-3.65125e-10
1.69999e-10
-2.44986e-10
1.04538e-10
4.74619e-11
2.17972e-10
-7.13188e-10
6.53621e-10
-2.57242e-10
1.83218e-10
2.81756e-10
-1.02475e-09
1.03499e-09
2.72502e-10
-5.85629e-10
1.05057e-10
4.43862e-10
9.79935e-11
6.35599e-10
2.07291e-10
-2.08909e-10
1.73718e-10
8.32512e-11
2.66573e-10
1.12057e-10
2.41845e-10
-1.09519e-10
-9.20641e-11
1.33456e-10
3.46382e-10
-2.18665e-10
2.62235e-10
-1.48108e-10
3.61435e-10
-3.02138e-10
4.73655e-10
-1.8657e-10
3.65976e-10
-3.03787e-10
4.95803e-10
-1.96555e-10
2.84746e-10
-2.38337e-10
4.80892e-10
-1.61322e-10
7.89316e-11
-1.29166e-10
4.4921e-10
-1.14229e-10
-2.00252e-10
7.00142e-10
-1.37221e-10
-2.83741e-10
-2.60224e-10
-1.56452e-10
8.72578e-11
-3.45796e-10
-3.08602e-10
1.55839e-10
-3.6663e-10
2.03201e-10
-3.77579e-10
2.17027e-10
-2.80926e-10
1.74132e-10
1.12164e-10
3.54392e-10
-8.57194e-10
7.89471e-10
-3.78183e-10
1.961e-10
4.78381e-10
-1.21925e-09
1.27734e-09
3.5107e-10
-8.08252e-10
1.91053e-10
5.21605e-10
1.59023e-10
7.26229e-10
2.92857e-10
-2.35248e-10
2.01021e-10
8.5264e-11
3.19306e-10
1.20638e-10
2.78986e-10
-1.22188e-10
-9.62113e-11
1.40435e-10
3.91801e-10
-2.26574e-10
2.62046e-10
-1.48289e-10
4.19793e-10
-3.00728e-10
4.67352e-10
-1.94615e-10
4.40896e-10
-2.8794e-10
4.72198e-10
-2.05358e-10
3.66685e-10
-2.15392e-10
4.6725e-10
-1.77643e-10
1.39104e-10
-1.1636e-10
4.7571e-10
-1.31762e-10
-2.16488e-10
8.30097e-10
-1.03484e-10
-3.71027e-10
-2.82533e-10
-1.27587e-10
7.72727e-11
-3.59344e-10
-2.49727e-10
1.11147e-10
-3.71428e-10
1.73352e-10
-3.92097e-10
2.00831e-10
-2.99307e-10
1.76436e-10
1.37424e-10
4.13583e-10
-9.379e-10
8.84832e-10
-4.60571e-10
2.05861e-10
-1.32475e-09
5.38327e-10
1.45471e-09
3.95826e-10
-9.38829e-10
2.03067e-10
5.77174e-10
1.64949e-10
7.81774e-10
2.80721e-10
-2.23279e-10
2.11149e-10
1.1995e-10
3.52849e-10
9.78271e-11
2.962e-10
-1.14714e-10
-9.60148e-11
1.25679e-10
4.46296e-10
-2.01544e-10
2.04537e-10
-1.53091e-10
4.96241e-10
-2.82003e-10
4.35768e-10
-2.03709e-10
5.59227e-10
-2.81446e-10
4.15737e-10
-1.97279e-10
5.30902e-10
-1.9993e-10
4.04974e-10
-1.76719e-10
4.00694e-10
-1.47422e-10
3.91231e-10
-1.13596e-10
1.65102e-10
-8.3152e-11
4.07295e-10
-8.85473e-11
-1.98743e-10
7.58134e-10
-3.62018e-11
-3.58088e-10
-2.99106e-10
-6.88493e-11
8.6061e-11
-4.06972e-10
-1.76476e-10
1.36924e-10
-4.86754e-10
-2.25059e-10
1.04913e-10
-4.73283e-10
1.80787e-10
-4.65405e-10
1.77364e-10
-3.41883e-10
1.47127e-10
1.30703e-10
3.79705e-10
-9.73619e-10
9.81449e-10
-5.04983e-10
2.04448e-10
4.98832e-10
-1.36168e-09
1.54309e-09
4.10454e-10
-1.0052e-09
1.87593e-10
5.89884e-10
1.50698e-10
7.54273e-10
2.43228e-10
-2.03083e-10
1.90364e-10
1.32749e-10
3.38215e-10
9.29454e-11
2.69664e-10
-9.61778e-11
-8.44742e-11
1.01351e-10
3.84567e-10
-1.6375e-10
2.13031e-10
-1.64189e-10
4.44073e-10
-2.04947e-10
3.26662e-10
-1.81224e-10
4.52795e-10
-2.34822e-10
4.0569e-10
-1.79588e-10
3.63845e-10
-2.36205e-10
4.75004e-10
-1.49848e-10
1.55709e-10
-1.34331e-10
4.57625e-10
-1.15154e-10
-3.45851e-10
6.30224e-10
2.64181e-10
-3.92847e-10
-4.43426e-10
-1.52771e-10
1.16015e-10
-4.81798e-10
2.09463e-10
-5.18954e-10
1.93562e-10
-4.85253e-10
1.66321e-10
-3.58675e-10
1.25404e-10
1.13661e-10
3.23523e-10
-8.78187e-10
9.2206e-10
-4.46745e-10
1.47879e-10
-1.12903e-09
4.17039e-10
1.33438e-09
3.14773e-10
-8.68409e-10
1.99836e-10
4.60001e-10
1.04e-10
7.00989e-10
2.35237e-10
-2.63197e-10
8.69643e-10
4.46459e-10
-2.88455e-10
8.97116e-10
5.53874e-10
-1.75659e-10
7.63982e-10
8.10238e-10
-2.02096e-10
6.83577e-10
6.96065e-10
-1.58034e-10
4.5079e-10
-2.53993e-10
5.55071e-10
-6.82875e-11
1.7403e-10
-1.39379e-10
4.73892e-10
-5.77532e-11
-3.05364e-10
9.16887e-10
-6.38098e-11
-3.73688e-10
-5.05101e-10
-7.44376e-11
1.34794e-10
-4.54053e-10
3.25185e-10
1.63686e-10
-1.98454e-10
-1.55106e-10
-2.56321e-10
8.3849e-10
-3.25467e-11
-3.85939e-10
-5.31125e-10
-7.66837e-11
1.53033e-10
-1.44732e-10
2.18971e-10
-9.00471e-10
6.4758e-10
-1.23658e-10
2.31815e-10
-3.32736e-10
-1.28522e-10
-4.75416e-10
-4.96829e-10
-5.24818e-11
1.47726e-10
-7.38404e-10
-1.69282e-10
2.34384e-10
-2.84302e-10
1.50942e-10
-1.01196e-09
7.96191e-10
-2.9676e-10
2.28225e-10
-3.88226e-10
-2.16882e-10
-5.10336e-10
-5.19449e-10
-1.59079e-10
1.62715e-10
-2.86555e-10
2.17526e-10
-9.67084e-10
6.40122e-10
-2.95817e-10
3.36227e-10
-4.14441e-10
-2.40449e-10
-4.49416e-10
-5.47562e-10
-1.73839e-10
1.50508e-10
-5.00453e-10
3.41316e-10
7.61182e-11
-2.2729e-10
-2.21123e-10
-1.88921e-10
6.28856e-10
-9.81748e-11
-2.65645e-10
-3.96967e-10
-1.17262e-10
9.80175e-11
-3.45133e-10
2.3716e-10
3.95956e-11
-1.52871e-10
-1.4807e-10
-1.17077e-10
3.73031e-10
-6.04216e-11
-1.55945e-10
-3.01143e-10
-8.54702e-11
1.16665e-10
-2.56066e-10
2.04777e-10
5.79754e-11
-1.95378e-10
1.36573e-11
-1.85454e-10
-7.82905e-11
3.04248e-10
1.74579e-11
2.43236e-10
-4.21981e-10
7.45389e-10
-1.44853e-10
-8.12985e-10
-4.28994e-10
1.76504e-09
1.39433e-10
-1.08449e-09
-1.13266e-09
-9.8173e-10
-1.76187e-09
2.45209e-09
6.11206e-10
-1.21223e-09
-1.52141e-09
-2.06499e-09
2.81185e-09
8.54146e-10
-1.22048e-09
2.72104e-09
9.24542e-10
-2.03782e-09
-1.59948e-09
-9.68392e-10
2.15934e-09
8.09418e-10
-1.73988e-09
-1.48094e-09
-7.11224e-10
-1.19126e-09
1.50518e-09
8.17099e-10
-1.38817e-09
1.02299e-09
-8.20307e-10
5.08684e-10
-5.66879e-10
1.00004e-09
-8.9665e-10
8.53801e-10
6.32688e-10
-8.50788e-11
1.24919e-10
4.83589e-10
-5.76947e-10
1.67518e-10
-2.32185e-10
1.14749e-10
1.04139e-10
2.90092e-10
-1.36535e-10
6.6592e-11
-1.16002e-10
1.86544e-10
7.23811e-11
1.16522e-10
3.75645e-10
3.78984e-11
-1.58579e-10
1.08016e-10
-2.85325e-10
6.94041e-10
-3.15733e-10
3.92726e-11
-3.09562e-10
3.86639e-10
1.27648e-10
2.92885e-10
1.09371e-10
-2.20143e-10
5.33616e-10
-3.12722e-10
8.43444e-11
-1.95868e-10
2.90485e-10
1.06594e-10
2.41594e-10
5.21733e-10
7.24009e-11
-2.05655e-10
2.1928e-10
-2.98508e-10
7.65979e-10
-4.33886e-10
1.88674e-10
-3.01488e-10
3.70582e-10
2.099e-10
3.7655e-10
6.2364e-10
1.2814e-10
-2.22174e-10
2.76295e-10
-2.98628e-10
8.52412e-10
-5.10377e-10
1.96427e-10
-2.62169e-10
4.13821e-10
1.99773e-10
4.41884e-10
6.80237e-10
1.1568e-10
-2.17147e-10
2.69622e-10
-3.13868e-10
9.19948e-10
-5.3599e-10
1.78778e-10
-2.93116e-10
4.14591e-10
2.07488e-10
4.85462e-10
6.63683e-10
1.17759e-10
-2.16153e-10
2.67793e-10
-2.29291e-10
7.04252e-10
-4.84766e-10
2.2487e-10
-1.76565e-10
2.02541e-10
3.62506e-10
3.39042e-10
4.43858e-10
-1.19234e-10
-1.80833e-11
7.4522e-10
1.9095e-10
-2.57077e-10
1.06969e-09
3.98559e-10
-2.76571e-10
1.10128e-09
6.14693e-10
-9.24181e-11
2.34458e-10
9.1929e-11
5.0434e-10
2.70558e-10
2.78555e-10
-1.72021e-10
-7.06505e-11
1.98574e-10
3.31996e-10
-2.71896e-10
3.64108e-10
-1.45655e-10
3.12052e-10
-2.75515e-10
4.30203e-10
-1.34744e-10
1.63808e-10
-1.80267e-10
4.38429e-10
-1.09914e-10
-4.79795e-10
6.67064e-10
4.4734e-10
-4.70803e-10
-4.27048e-10
2.40878e-10
-4.82196e-10
3.34703e-10
-4.12291e-10
3.54259e-10
3.17851e-10
6.59059e-10
1.0553e-09
-9.62821e-10
-6.04043e-10
1.15436e-10
-1.07934e-09
7.64877e-10
1.46213e-09
3.54952e-10
-1.08045e-09
3.92011e-10
4.65386e-10
2.03574e-10
6.22329e-10
4.2264e-10
-2.15477e-10
6.48066e-10
6.23312e-10
-2.18845e-10
5.78641e-10
7.18718e-10
-2.10864e-10
3.63701e-10
-2.97589e-10
6.55074e-10
-1.42542e-10
1.29334e-10
-2.20758e-10
5.48643e-10
-9.35161e-11
-4.71009e-10
6.26038e-10
3.52368e-10
-3.78062e-10
-5.23132e-10
-4.56594e-10
2.87958e-10
-5.62741e-10
4.09086e-10
4.526e-10
-3.7876e-10
-1.89243e-10
1.51442e-10
-1.1121e-10
-4.42259e-11
-2.17243e-10
7.04763e-10
-4.11216e-11
-2.94956e-10
-4.06431e-10
-8.17568e-11
1.59735e-10
-2.27029e-10
3.5873e-10
-1.29403e-09
7.10428e-10
-1.23098e-10
4.79675e-10
-6.10655e-10
-1.36835e-10
-6.10355e-10
-6.81257e-11
2.21523e-10
-9.08993e-10
6.2549e-10
-4.71856e-11
2.62562e-10
-4.09701e-10
-8.87334e-11
-4.43107e-10
-3.17726e-11
1.92967e-10
-4.83167e-10
2.3679e-10
7.87909e-11
1.35811e-10
-7.04035e-10
-8.74893e-11
1.84701e-10
-2.07527e-10
-2.64059e-10
-3.60972e-10
-4.61058e-10
7.37521e-11
1.27298e-10
-1.38666e-10
3.0452e-10
-6.02228e-10
3.80385e-10
-9.95271e-11
1.82708e-10
-9.00798e-10
-2.16083e-10
2.17895e-10
-4.12365e-10
-2.22466e-10
-4.82852e-10
-1.27556e-10
1.96236e-10
-5.44083e-10
2.35277e-10
3.06543e-11
1.50599e-10
-9.54768e-10
-2.26363e-10
3.41235e-10
-4.82529e-10
-2.50043e-10
-4.62649e-10
-1.74908e-10
1.47402e-10
-5.78288e-10
3.83572e-10
-1.22711e-10
1.42523e-10
-2.63328e-10
-1.32142e-10
-2.80995e-10
-8.61191e-11
7.85714e-11
-3.08178e-10
1.49954e-10
-9.32373e-13
7.30515e-11
-1.48609e-10
-8.26265e-11
-1.37378e-10
-7.26856e-11
1.42867e-10
-2.78202e-10
9.87956e-11
-5.053e-11
1.57256e-10
-1.4296e-11
-8.31874e-12
-4.80007e-11
2.62675e-10
1.57366e-10
3.78412e-10
5.25162e-10
7.17739e-11
-5.87718e-11
1.82459e-10
-3.25046e-13
1.69292e-10
2.01657e-10
-9.24052e-11
1.30223e-10
1.87594e-10
4.30804e-11
1.59215e-10
-1.11595e-10
1.31954e-10
-1.08851e-10
-9.60649e-11
1.77625e-10
-4.79997e-11
7.01474e-11
-6.78106e-11
9.70125e-11
5.88333e-11
6.37598e-11
-6.09796e-11
1.80716e-11
7.61647e-11
2.02627e-10
-6.9492e-11
-2.77852e-12
1.05873e-10
9.64238e-11
7.27136e-11
-4.95862e-11
-1.22373e-10
1.83464e-10
-4.79027e-11
-8.87261e-11
1.77486e-10
-2.24505e-10
1.23755e-10
1.06731e-10
4.92235e-10
-2.06669e-10
-6.88076e-11
1.16886e-10
1.90278e-10
1.27845e-10
-2.08396e-10
9.42541e-11
1.03184e-10
3.12803e-10
-9.41684e-11
-6.44683e-12
1.6204e-10
1.29436e-10
1.27922e-10
-4.7462e-11
-1.51983e-10
3.84624e-10
-2.52704e-10
-4.99489e-11
2.11829e-10
-2.53746e-10
2.06486e-10
2.20055e-10
5.38283e-10
-1.59069e-10
2.12882e-11
2.06511e-10
2.87119e-10
2.54553e-10
-2.05636e-11
-1.55162e-10
3.95622e-10
2.42179e-11
-1.53286e-10
2.49591e-10
-3.83035e-10
2.71569e-10
2.57496e-10
5.85575e-10
-1.38514e-10
-1.04328e-12
2.26541e-10
2.82239e-10
2.7657e-10
-4.36503e-11
-1.50119e-10
3.95294e-10
-1.82468e-11
-1.3846e-10
2.58579e-10
-3.96891e-10
2.84654e-10
2.48953e-10
5.5677e-10
-1.19245e-10
-1.69708e-13
2.13262e-10
2.64512e-10
2.86487e-10
-1.76778e-11
-1.36068e-10
3.72674e-10
2.08789e-11
-1.46719e-10
2.28571e-10
-3.68564e-10
2.81658e-10
2.31012e-10
6.26933e-10
-1.4601e-10
-2.74835e-11
6.6154e-10
2.25862e-10
-2.31872e-10
-2.85969e-11
2.57656e-10
4.60603e-10
4.00999e-10
-4.57717e-10
5.99598e-10
-1.48079e-10
-2.91446e-12
9.58051e-10
2.96631e-10
-2.56528e-10
5.78624e-10
-8.63279e-11
8.00923e-10
-6.40115e-10
4.22751e-10
-4.93643e-12
2.36919e-10
4.52951e-10
5.03063e-10
4.61119e-10
-8.54822e-11
6.48548e-11
7.3601e-10
3.51982e-10
-2.04235e-10
9.12329e-10
6.72945e-10
-2.25954e-10
9.194e-10
9.37311e-10
-2.25663e-10
7.34978e-10
1.06002e-09
-2.20519e-10
4.95819e-10
1.00598e-09
-2.18175e-10
1.20829e-10
-2.54534e-10
7.83641e-10
-1.54116e-10
-5.56852e-10
7.90341e-10
3.20887e-10
-4.33547e-10
-5.66255e-10
3.80906e-10
1.61644e-10
-2.43149e-10
-1.32384e-10
-3.07881e-10
8.67425e-10
-6.67511e-11
-3.31148e-10
-8.9556e-11
2.43287e-10
-8.21869e-10
4.91744e-10
-5.51836e-11
2.95751e-10
-3.9023e-10
-9.24612e-11
-3.80299e-10
-3.33715e-11
2.71813e-10
-6.33347e-10
2.55433e-10
1.27403e-10
2.17139e-10
-1.19158e-09
-3.59103e-11
4.71048e-10
-1.35204e-10
-5.67727e-10
-3.23726e-10
6.31078e-10
-1.86385e-10
-2.56173e-10
-6.49428e-10
1.10881e-10
1.67635e-10
-2.18298e-10
-2.83076e-10
-3.02598e-10
1.28484e-10
3.4608e-11
-2.3178e-10
3.9583e-10
-1.91549e-10
-2.751e-10
-4.52395e-10
2.44096e-11
1.08717e-10
-1.31072e-10
-6.56443e-10
3.02682e-11
3.04849e-10
-3.88691e-10
6.73135e-11
-2.12381e-10
-4.5237e-10
-1.35965e-10
2.332e-10
-1.37059e-10
-1.72557e-10
-2.87005e-10
-1.0135e-11
6.16496e-11
-6.43926e-10
-2.69651e-11
1.67812e-10
-3.27395e-10
-3.03722e-10
-4.6524e-10
5.42789e-12
1.63072e-10
-3.05894e-10
5.75004e-10
-3.97663e-10
-3.36695e-10
-6.8355e-10
-3.07121e-11
1.82013e-10
-2.12508e-10
-3.37519e-10
-1.71893e-10
2.74696e-10
-1.67819e-10
-1.47492e-10
-3.87231e-10
8.43775e-12
8.41974e-11
-2.06339e-10
-1.63086e-10
-3.79647e-10
-4.31526e-13
1.72812e-10
-1.78751e-10
3.90222e-10
-2.52774e-10
-3.38369e-10
-5.47164e-11
-1.07861e-10
-3.86764e-11
-3.64652e-11
4.66431e-11
-2.62166e-11
2.27865e-11
1.50686e-10
-1.79196e-10
6.65407e-11
9.89673e-11
-3.57247e-11
3.0207e-10
-6.71602e-11
4.19773e-10
-5.27062e-11
4.23603e-11
1.34875e-11
5.19351e-12
1.23019e-10
-6.63236e-12
1.62372e-10
-3.3831e-11
4.14956e-11
-5.34718e-13
1.26535e-10
-5.11872e-12
4.05004e-11
1.66381e-10
1.70791e-11
1.15491e-10
1.64064e-10
-3.73908e-11
1.44775e-10
4.94685e-11
1.21566e-10
-4.38014e-11
1.90181e-11
2.4352e-10
2.22979e-10
-2.74795e-10
1.63988e-10
-1.55511e-11
3.41163e-11
4.68754e-11
3.48026e-11
1.00214e-11
7.2288e-11
8.71474e-11
-5.12475e-11
4.62508e-11
-3.52708e-11
1.20956e-10
6.9438e-11
4.61363e-11
-1.49383e-10
-1.28248e-11
-1.38625e-10
2.60131e-10
-3.84203e-11
-1.65097e-10
4.10297e-10
-4.45084e-11
-3.08776e-10
2.03116e-10
2.49667e-10
-2.62108e-10
2.03222e-10
2.19516e-10
2.03256e-10
1.68728e-10
-3.30711e-10
4.28295e-10
-2.32202e-10
-1.55489e-10
1.6265e-10
8.93725e-10
-6.23485e-10
4.65568e-10
-3.07519e-10
3.7034e-10
-4.40545e-10
4.67135e-10
4.96793e-10
4.36386e-10
-7.37003e-10
4.17208e-10
7.2314e-10
-2.58108e-10
-1.99987e-10
1.7134e-10
1.61341e-10
-1.32772e-10
3.4124e-10
3.53329e-10
2.58395e-10
2.01999e-10
2.42221e-10
-5.41273e-10
4.18494e-11
-1.42274e-10
5.14311e-10
-1.11199e-10
-1.59263e-10
8.71191e-10
-2.73124e-10
1.94584e-10
-2.78342e-10
2.05651e-10
-1.91731e-10
4.12357e-10
4.44912e-10
2.87997e-10
2.20641e-10
2.86266e-10
-5.89252e-10
2.54307e-11
-1.52573e-10
5.07462e-10
-1.19567e-10
-1.41823e-10
8.45174e-10
-2.71582e-10
1.87468e-10
-2.536e-10
1.91479e-10
-2.00998e-10
4.54581e-10
4.0011e-10
2.4893e-10
2.08482e-10
2.83447e-10
-5.49377e-10
3.92981e-11
-1.38055e-10
4.94812e-10
-1.06469e-10
-1.40564e-10
7.98363e-10
-2.09147e-10
-2.39961e-10
1.45556e-10
1.35239e-10
-1.38201e-10
4.42649e-10
3.58675e-10
1.6604e-10
1.65064e-10
2.21044e-10
-4.16906e-10
4.30392e-10
2.08524e-11
-5.93454e-11
6.00743e-10
5.78331e-11
-1.78796e-10
-4.9388e-11
2.90025e-10
4.13257e-10
4.42176e-10
-5.44714e-10
4.78556e-11
-1.01316e-10
5.07881e-10
1.53416e-10
-2.00186e-10
2.42201e-10
-3.52031e-10
3.24392e-10
2.93322e-10
6.82133e-10
-5.62193e-11
3.90338e-11
7.08672e-10
4.15611e-10
-1.81131e-10
-2.61017e-10
2.65e-10
5.00125e-10
5.62326e-10
-6.18779e-10
6.4972e-10
-1.17224e-10
8.44833e-11
9.73109e-10
5.6602e-10
-2.16465e-10
1.17716e-09
9.49452e-10
-2.16198e-10
1.0799e-09
1.19969e-09
-4.24062e-11
8.86455e-10
1.30804e-09
-1.08615e-10
7.08919e-10
1.14758e-09
-1.86407e-10
4.13577e-10
-4.36967e-10
8.65253e-10
-1.32943e-10
9.16681e-11
-1.85221e-10
5.73774e-10
-6.66449e-11
-2.67313e-10
7.14031e-10
-1.14899e-10
-2.40152e-10
-4.90363e-10
-1.60691e-10
1.98518e-10
-6.60875e-10
5.23887e-10
1.44354e-10
-3.23688e-10
-1.60655e-10
-3.71449e-10
9.28799e-10
-7.72799e-11
-3.35716e-10
-1.13444e-10
2.85729e-10
-9.44055e-10
5.48787e-10
-6.2408e-11
3.4423e-10
-1.01465e-10
-4.17596e-10
-2.90853e-10
5.87531e-10
-1.68282e-10
-2.29861e-10
-6.92975e-10
1.28796e-10
2.1814e-10
-2.44104e-10
-2.85898e-10
-3.90398e-10
2.25809e-10
4.78898e-11
-3.47985e-10
-2.39541e-10
5.23784e-10
-3.26658e-10
6.27393e-11
1.84446e-10
-6.36359e-10
3.79113e-10
8.04448e-11
-4.63928e-10
7.18579e-10
-9.51746e-10
6.0735e-11
-5.27422e-10
-1.20078e-11
-3.31865e-10
-2.113e-10
3.59277e-10
-3.43535e-10
2.0324e-11
1.72125e-10
-4.63651e-10
1.92989e-10
7.9684e-11
-2.35342e-10
3.3195e-10
-6.30877e-10
7.06209e-11
-4.49266e-10
4.67843e-11
-6.11426e-10
-3.57803e-11
2.28205e-10
-3.52714e-10
4.24319e-10
-4.49831e-10
-1.30735e-10
1.77462e-10
-5.03913e-10
1.04478e-10
-3.50526e-10
7.25991e-11
-5.88045e-10
-4.8906e-11
2.59461e-10
-3.70719e-10
-2.47257e-10
3.70384e-10
-3.40455e-10
-1.25108e-12
2.10966e-10
-5.02749e-10
1.19801e-10
1.34445e-10
-2.42289e-10
1.08732e-10
-1.63749e-10
-2.05448e-10
6.09208e-11
-4.23308e-10
-2.79603e-11
1.4806e-10
-6.30451e-10
2.62999e-10
-3.90654e-10
-3.8842e-10
-1.76745e-10
2.36461e-10
-6.48686e-10
1.98319e-10
-4.2157e-10
8.5453e-11
-2.36233e-10
-1.94269e-10
1.86274e-10
-1.77346e-10
-1.77413e-11
1.71306e-10
-4.28826e-10
1.05506e-10
1.11315e-10
-6.36756e-11
4.66253e-11
-2.23851e-10
-1.8792e-10
-1.37043e-10
-1.32753e-10
-2.72309e-10
5.99088e-11
1.4189e-10
-7.95904e-11
1.14071e-10
-4.71313e-12
4.19395e-11
2.14739e-10
8.35072e-11
-4.29973e-10
2.59485e-10
1.49709e-10
6.27175e-11
5.11099e-11
-3.85763e-11
3.3528e-10
-6.30491e-12
2.57984e-10
-1.67649e-11
-3.19914e-11
6.04222e-11
1.82207e-10
4.73576e-11
8.91818e-11
1.31797e-12
2.68151e-10
1.83208e-10
-2.35649e-10
-9.42841e-11
2.06323e-11
3.4476e-10
-2.94691e-12
-1.30477e-12
1.01303e-10
-2.78933e-11
1.28313e-10
-9.35118e-12
2.41915e-10
2.44435e-10
-2.56744e-10
-2.57142e-11
6.86271e-11
2.23844e-10
-2.48321e-11
1.95121e-10
-1.33982e-11
1.52977e-10
4.62929e-11
3.06571e-11
1.82615e-10
-8.14659e-11
-2.54093e-10
3.05919e-10
-6.39745e-11
1.74246e-10
1.15952e-10
-4.36142e-11
1.80504e-11
1.36193e-10
-2.36352e-11
-1.9458e-10
-8.03603e-12
-3.62059e-11
3.12998e-10
-2.50705e-10
1.18301e-10
8.73639e-11
-1.69912e-11
-1.96709e-10
2.71101e-11
-2.15426e-10
2.22197e-10
2.75229e-10
-3.82957e-10
5.19839e-10
2.57898e-10
-7.15384e-10
1.59839e-10
8.20938e-10
1.23192e-10
-9.96862e-10
5.72578e-10
5.10615e-10
-3.42743e-10
3.33474e-10
3.1959e-10
4.63771e-10
-8.93443e-10
4.99738e-10
6.58827e-10
2.77941e-10
-1.36618e-10
-3.36378e-10
8.51022e-10
6.52406e-10
-5.16493e-10
-3.28104e-10
-1.51198e-10
5.1047e-10
3.52322e-10
1.39427e-10
-6.03911e-11
2.72992e-10
2.88605e-10
2.26958e-10
-7.25354e-10
3.0523e-10
5.0663e-10
1.706e-10
-1.77279e-10
7.70597e-10
-2.51813e-10
2.84847e-10
-2.97002e-10
1.13739e-10
1.11865e-10
2.20261e-10
3.24731e-10
4.16603e-10
4.76436e-10
-9.71034e-10
6.15329e-10
-1.44292e-10
-2.16809e-10
1.62375e-10
8.39749e-10
-2.86375e-10
-2.26204e-10
2.88157e-10
1.33138e-10
3.68063e-10
2.1975e-10
1.18797e-10
4.00058e-10
-9.52616e-10
4.84697e-10
5.77949e-10
-1.47353e-10
-1.8389e-10
1.5335e-10
7.95823e-10
-2.52822e-10
-2.09233e-10
2.44175e-10
7.59617e-11
3.69701e-10
2.16885e-10
1.33278e-10
4.01642e-10
-9.65244e-10
5.01361e-10
6.01689e-10
-1.09605e-10
-1.93648e-10
1.03206e-10
8.27698e-10
-2.02614e-10
-1.84193e-10
1.60793e-10
6.03325e-11
3.80497e-10
2.22695e-10
1.64175e-10
1.16765e-10
-8.63435e-10
4.45649e-10
3.61352e-10
2.39336e-10
2.20978e-10
-6.40788e-10
2.9724e-10
9.12322e-11
-5.05125e-11
5.05687e-10
-5.46404e-11
-1.38836e-10
8.48045e-10
-1.07036e-10
-2.75543e-10
4.02191e-11
9.71073e-11
-6.29049e-11
3.91366e-10
4.22477e-10
1.55805e-10
2.2692e-10
1.96784e-10
-4.824e-10
5.6696e-10
6.89074e-11
-6.44569e-11
7.79386e-10
2.18232e-10
-1.82539e-10
-2.48116e-10
4.22777e-10
4.95738e-10
-7.57473e-10
6.18347e-10
7.82698e-10
3.25189e-10
-1.19092e-10
1.23056e-09
7.09025e-10
-2.07433e-10
1.37548e-09
1.08064e-09
-2.58812e-11
2.94597e-10
-1.00679e-12
6.04878e-10
4.77015e-10
3.09038e-10
-2.92004e-10
-7.02679e-11
3.47832e-10
3.26588e-10
-4.58425e-10
6.0235e-10
-1.61475e-10
2.36765e-10
-4.23945e-10
6.75876e-10
-1.62109e-10
3.47899e-11
-2.34517e-10
5.62731e-10
-1.26239e-10
-3.78538e-10
5.60599e-10
1.43389e-10
-2.90661e-10
-3.74034e-10
3.34753e-10
-4.78017e-10
5.4529e-10
-4.23868e-10
6.35008e-10
5.9116e-10
1.21238e-09
-1.25529e-09
1.16867e-09
-7.2227e-10
1.45251e-10
-1.34486e-09
1.41293e-09
1.72133e-09
4.81511e-10
-1.28226e-09
5.55494e-10
5.60568e-10
4.14025e-10
5.75219e-10
7.21739e-10
-1.34041e-10
4.74091e-10
9.41947e-10
-1.64946e-10
3.43814e-10
8.91336e-10
-1.98329e-10
8.03817e-11
-2.83975e-10
6.62297e-10
-1.14891e-10
-4.78862e-10
7.76781e-10
1.78833e-10
-3.96372e-10
-5.77914e-10
3.75678e-10
5.71721e-11
-2.97076e-10
-1.94622e-10
-3.22351e-10
7.5426e-10
-1.33372e-10
-2.41367e-10
-1.8256e-10
2.77164e-10
-1.00852e-09
5.58397e-10
-1.34767e-10
4.02327e-10
-5.64265e-10
-1.70717e-10
-3.88435e-10
-1.37171e-10
3.41013e-10
-9.63484e-10
5.54745e-10
-8.05662e-11
3.52132e-10
-1.02712e-10
-3.89264e-10
-2.87329e-10
-1.69667e-10
5.49799e-10
-1.95515e-10
6.21988e-11
1.75595e-10
-7.11607e-10
5.07725e-10
9.64128e-11
-4.76097e-10
3.406e-10
-8.01351e-10
2.2524e-10
-5.28789e-10
1.32084e-11
-4.17938e-10
-2.29605e-10
4.84458e-10
-3.65705e-10
7.12825e-11
2.60372e-10
-5.53619e-10
3.08525e-10
8.67716e-11
-9.94681e-10
6.2338e-10
1.96796e-10
-1.26616e-09
8.68052e-10
1.22005e-10
-4.32897e-10
3.42189e-10
-4.89549e-10
-6.85901e-10
-4.31329e-10
-5.94036e-10
-6.4784e-10
2.80268e-10
1.29231e-10
-8.22331e-10
4.08931e-10
9.75128e-11
-1.78335e-10
-6.47212e-11
-1.98984e-10
-3.80291e-10
-2.93263e-10
-1.89124e-10
-3.26824e-10
-3.17223e-11
1.26999e-10
-4.2804e-10
1.19274e-10
8.792e-11
-6.23084e-10
2.14881e-10
1.57631e-10
-1.27045e-10
-6.81532e-11
-1.58828e-10
-2.69061e-10
-2.40905e-10
-1.55193e-10
-2.34862e-10
-2.77037e-11
1.08279e-10
-3.48111e-10
8.43552e-11
8.08592e-11
-5.84909e-10
1.67926e-10
1.88683e-10
-1.66692e-10
-7.09011e-11
-2.38588e-10
-1.02759e-10
1.89739e-10
-3.54163e-10
1.00491e-10
-4.09339e-10
1.14872e-10
-6.79851e-10
2.46846e-10
2.60137e-10
-1.59057e-10
-3.90541e-11
-2.15081e-10
-2.66661e-10
-3.23952e-10
-2.97518e-10
-4.99721e-10
1.60761e-10
1.20518e-10
-1.55574e-10
-8.61031e-11
-2.11415e-10
-6.21777e-11
1.33199e-10
-2.69166e-10
4.257e-11
-3.01435e-10
7.53104e-11
-4.93774e-11
-7.1692e-13
-1.37267e-10
9.72107e-11
4.56606e-11
2.24919e-11
-1.53876e-10
2.31772e-11
3.3142e-10
-1.03501e-10
-1.84575e-10
6.71312e-10
-3.81135e-10
4.08074e-10
-8.85583e-11
-8.50523e-11
2.39674e-10
3.21352e-10
-1.30758e-10
-9.10747e-11
1.65525e-10
3.40488e-11
-9.16288e-11
2.65838e-10
5.60225e-11
2.67175e-10
3.69095e-11
-5.37464e-11
7.36481e-11
1.81253e-11
2.29153e-10
1.13242e-11
1.19617e-10
-2.47533e-12
2.08245e-10
6.92108e-12
4.63127e-10
-3.1246e-10
1.77189e-10
-2.50832e-10
3.58418e-10
4.79408e-10
-1.23853e-10
-1.46154e-11
1.57528e-10
-4.89754e-11
2.72957e-10
2.5492e-11
4.00201e-10
4.42798e-10
-4.12521e-10
-2.42502e-10
-4.71672e-11
4.42627e-10
2.47251e-10
-5.383e-11
5.16294e-10
-8.58381e-10
6.48318e-11
1.61776e-09
8.62297e-10
-2.09166e-09
8.0748e-11
-1.04659e-11
-7.70727e-11
6.2928e-10
9.33076e-11
9.82715e-10
-5.74512e-11
2.95313e-10
1.94299e-10
3.45647e-10
4.89402e-10
7.80834e-10
-1.2478e-10
-6.7435e-11
4.33388e-10
2.48229e-10
-4.75453e-11
-5.01395e-10
2.10835e-11
4.03083e-10
-2.91634e-10
-7.78674e-10
6.66333e-10
3.5644e-10
-8.87606e-11
-2.39841e-10
-1.03979e-10
1.40946e-10
5.13063e-11
-9.2058e-11
2.27222e-10
2.1262e-10
4.1504e-10
-3.18456e-10
2.56191e-10
-2.63123e-10
2.15202e-10
9.17507e-10
-3.67681e-11
-8.39761e-10
3.12771e-10
5.85582e-10
-7.29609e-10
4.6452e-11
3.08016e-10
3.52888e-10
-9.02177e-10
5.54041e-10
3.67249e-10
5.08022e-10
3.11385e-10
-8.78653e-10
2.15512e-10
4.79282e-10
-3.63214e-11
-2.91247e-10
1.12684e-10
3.73211e-10
-1.90498e-10
-7.98883e-11
1.8257e-10
6.02272e-10
-4.46263e-10
-2.25884e-10
4.06034e-10
-1.76374e-10
2.78592e-10
4.29618e-10
3.00109e-10
-2.81411e-10
1.69153e-10
3.16033e-10
7.48172e-11
-3.10636e-10
2.88162e-10
1.14279e-10
-4.90044e-10
3.73183e-10
2.85504e-10
2.69697e-10
1.01152e-10
5.00698e-10
-4.03575e-10
-3.43911e-10
3.82728e-10
5.97373e-10
-1.06209e-10
3.08337e-10
5.78399e-10
-2.15841e-10
1.05091e-10
5.47382e-10
-1.7498e-10
1.02629e-10
7.51875e-10
-4.33381e-10
-2.66299e-10
-2.88846e-10
6.18721e-10
1.08999e-10
-1.12761e-09
1.23715e-09
-5.56027e-10
-2.15958e-09
-1.24895e-09
6.81685e-10
1.89933e-09
-2.67332e-09
-1.62686e-09
-1.28344e-09
2.09442e-09
1.32961e-09
-2.497e-09
-1.41388e-09
2.171e-09
-2.22436e-09
1.29091e-09
-2.20436e-09
-1.20142e-09
1.76984e-09
1.97173e-09
-2.8328e-09
-1.80827e-09
-1.34404e-09
1.94793e-09
1.89245e-09
-2.89243e-09
-1.3091e-09
-2.42777e-09
-5.52985e-10
1.48472e-09
-5.09624e-10
-3.9449e-10
-1.90242e-09
7.82046e-10
-7.79653e-11
-1.04704e-09
-1.40563e-10
1.97931e-09
2.60956e-10
9.28281e-10
-3.10593e-09
6.86983e-10
-5.20996e-11
-2.03126e-09
1.21962e-09
-1.85433e-11
-2.678e-10
7.80122e-10
-1.16728e-09
2.35527e-09
1.60719e-09
-3.19492e-09
1.05901e-10
8.40384e-10
1.29082e-09
1.7772e-10
5.86304e-10
1.09054e-09
-1.5421e-10
2.01689e-10
-6.1906e-11
6.00732e-10
5.69292e-11
1.25509e-11
4.4264e-10
1.26026e-10
5.72576e-10
2.22969e-10
-8.64631e-10
1.66408e-10
6.37978e-10
5.49813e-10
-1.22816e-09
3.11287e-10
6.27918e-10
1.44721e-10
3.03666e-10
7.23619e-10
-1.30428e-10
-5.78725e-10
5.48087e-10
6.49087e-10
-3.14783e-10
-2.92228e-10
9.94001e-10
-7.22116e-10
-5.58385e-10
-1.62686e-10
6.97789e-10
-4.8514e-10
-3.42192e-10
3.13763e-13
2.1124e-10
-4.10567e-10
4.39773e-11
4.3394e-11
-2.26929e-10
1.39878e-10
4.49047e-11
-2.83574e-11
1.43538e-10
-1.16128e-10
-3.66069e-11
-1.88369e-10
-5.4196e-11
5.71044e-11
-6.78708e-11
1.77172e-10
-1.62545e-10
2.3498e-10
1.40974e-10
-1.41675e-10
-4.35902e-10
3.94361e-10
3.65854e-10
-8.93335e-11
2.93677e-10
2.7315e-10
-9.25131e-10
5.44517e-10
2.69003e-10
4.05286e-10
1.56292e-10
4.67184e-10
7.78603e-10
5.45636e-11
4.96762e-10
-1.90772e-10
7.96825e-11
9.97393e-11
3.10929e-10
6.97625e-10
5.28241e-11
-3.75216e-10
2.34509e-10
7.79671e-10
5.86608e-11
-6.8867e-11
-1.5595e-10
1.70961e-10
-6.4052e-11
-5.27588e-12
1.65988e-10
2.55679e-10
1.97577e-11
8.87743e-10
-1.63792e-10
-5.44427e-10
7.61535e-11
-4.15208e-10
3.55424e-10
1.13097e-09
-1.83441e-10
8.64099e-10
-1.96059e-10
-7.24826e-10
-2.79635e-10
3.97863e-10
7.61411e-10
-1.55315e-11
-9.95693e-11
3.32227e-10
-3.28729e-11
4.00394e-10
1.90088e-10
3.85713e-10
8.17263e-11
1.27254e-10
6.19625e-10
-2.32225e-10
-5.37363e-10
5.35674e-10
-1.23774e-10
1.0908e-10
5.66683e-10
6.76393e-11
6.07293e-10
2.97999e-10
1.75618e-10
-1.28031e-11
4.1329e-10
3.11863e-11
1.1578e-09
3.10053e-10
3.28456e-10
2.92092e-11
7.00841e-10
9.92918e-11
-1.05281e-10
1.61833e-09
1.86894e-10
-1.37148e-09
-1.0127e-10
-6.54834e-10
2.13362e-11
6.29488e-10
6.7432e-11
5.73666e-11
3.46503e-10
1.17451e-10
5.23574e-10
6.4379e-11
2.87771e-10
3.30154e-10
1.27438e-10
-6.55307e-10
7.42316e-10
3.25733e-10
-1.24965e-10
1.57374e-09
-9.57338e-10
2.03284e-10
1.24148e-09
8.71288e-10
1.10121e-10
5.19247e-10
-6.95472e-10
2.69384e-10
-5.77048e-10
6.01786e-10
1.72789e-10
-8.73993e-11
-8.24898e-10
2.40963e-10
2.399e-10
-2.33003e-10
-4.72741e-10
4.3187e-10
-8.62363e-11
-9.71719e-11
4.50816e-10
-6.1515e-10
2.22065e-10
-1.34872e-10
3.51833e-10
3.60951e-10
-9.63605e-11
-6.16809e-10
7.48035e-10
3.13709e-10
-9.31065e-11
3.02365e-10
-8.80757e-12
-4.83288e-10
6.44342e-10
1.68979e-10
-2.76718e-11
1.37838e-10
4.2647e-10
-4.34039e-10
2.65143e-10
6.05028e-11
2.46228e-10
1.11706e-10
4.21147e-10
8.17723e-11
1.14967e-09
2.82507e-10
-3.22622e-10
3.66957e-10
1.61189e-10
-1.18649e-10
2.05452e-10
3.88923e-10
-1.0877e-10
3.5266e-10
7.41307e-11
-2.28492e-10
1.23152e-10
3.64354e-10
9.36479e-11
-2.66992e-10
8.04427e-10
1.37465e-11
1.09524e-09
-1.43477e-10
-8.63327e-10
-4.0684e-10
3.45293e-10
1.09278e-09
6.40057e-11
1.08047e-09
4.15185e-11
-2.76739e-10
3.34693e-10