/*--------------------------------*- C++ -*----------------------------------*\
| =========                 |                                                 |
| \\      /  F ield         | OpenFOAM: The Open Source CFD Toolbox           |
|  \\    /   O peration     | Version:  5.0                                   |
|   \\  /    A nd           | Web:      www.OpenFOAM.org                      |
|    \\/     M anipulation  |                                                 |
\*---------------------------------------------------------------------------*/
FoamFile
{
    version     2.0;
    format      ascii;
    class       volScalarField;
    location    "60";
    object      pRest;
}
// * * * * * * * * * * * * * * * * * * * * * * * * * * * * * * * * * * * * * //

dimensions      [1 -1 -2 0 0 0 0];

internalField   nonuniform List<scalar> 
36177
(
8260.66
8260.71
8260.6
8260.5
8260.4
8260.3
8260.27
8260.29
8260.4
8260.48
8260.58
8260.6
8260.68
8260.7
8260.75
8260.75
8260.65
8260.55
8260.46
8260.36
8260.26
8260.18
8260.17
8260.16
8260.23
8260.2
8260.2
8260.24
8260.15
8260.27
8260.32
8260.97
8260.96
8260.89
8260.87
8260.81
8260.83
8260.87
8260.87
8260.88
8260.89
8260.87
8260.76
8260.77
8260.74
8260.65
8260.5
8260.49
8260.36
8260.25
8260.16
8260.05
8259.95
8259.94
8259.98
8260.07
8260.17
8260.26
8260.38
8260.49
8260.49
8260.48
8260.5
8260.49
8260.26
8260.27
8260.1
8259.99
8259.87
8259.73
8259.59
8259.55
8259.62
8259.76
8259.89
8260.01
8260.13
8260.25
8260.26
8260.24
8260.24
8260.23
8260.06
8259.83
8259.81
8259.58
8259.44
8259.25
8259.07
8258.88
8258.85
8258.87
8259.17
8259.33
8259.51
8259.66
8259.82
8259.82
8259.75
8259.77
8259.72
8259.5
8259.21
8259.18
8258.92
8258.77
8258.57
8258.41
8258.26
8258.24
8258.18
8258.44
8258.59
8258.81
8258.99
8259.19
8259.18
8259.13
8259.16
8259.11
8258.87
8258.59
8258.59
8258.38
8258.27
8258.11
8257.95
8257.8
8257.64
8257.63
8257.61
8257.79
8257.94
8258.08
8258.23
8258.38
8258.56
8258.56
8258.54
8258.57
8258.54
8258.36
8258.12
8258.18
8257.97
8257.83
8257.67
8257.5
8257.32
8257.31
8257.34
8257.51
8257.66
8257.82
8257.95
8258.1
8258.11
8258.08
8258.09
8258.1
8257.88
8257.72
8257.52
8257.36
8257.16
8257
8256.67
8256.64
8256.71
8256.99
8257.19
8257.18
8257.16
8257.39
8257.41
8257.63
8257.64
8257.84
8257.97
8258
8258.25
8258.27
8258.53
8258.6
8258.91
8259.05
8259.27
8259.5
8259.47
8259.54
8259.68
8259.9
8259.89
8259.96
8260.03
8260.11
8260.1
8260.11
8260.08
8260.15
8260.25
8260.39
8260.51
8260.63
8260.74
8260.81
8260.81
8260.88
8260.89
8260.87
8260.89
8260.77
8260.75
8260.67
8260.67
8260.48
8260.48
8260.47
8260.2
8260.19
8260.02
8259.96
8259.71
8259.66
8259.45
8259.4
8259.1
8259.05
8258.82
8258.78
8258.53
8258.5
8258.34
8258.27
8258.02
8258.05
8257.82
8257.63
8257.44
8257.09
8257.08
8256.82
8256.6
8256.31
8256.29
8256.39
8256.67
8256.9
8257.08
8257.02
8256.87
8256.94
8256.88
8256.58
8256.34
8256.08
8255.89
8255.6
8255.61
8255.62
8255.9
8256.17
8255.86
8255.81
8255.91
8256.19
8256.27
8256.69
8256.73
8256.73
8257.19
8257.2
8257.17
8257.43
8257.64
8257.65
8257.88
8257.88
8258.04
8258.31
8258.35
8258.43
8258.67
8258.98
8259.09
8259.17
8259.52
8259.61
8259.69
8259.94
8260.01
8260.06
8260.06
8260.07
8260.04
8261.01
8261.01
8260.98
8260.97
8260.96
8260.96
8260.9
8260.91
8260.9
8260.77
8260.76
8260.82
8260.67
8260.7
8260.45
8260.43
8260.42
8260.14
8260.15
8260.16
8259.9
8259.88
8259.63
8259.58
8259.6
8259.32
8259.32
8259.01
8259
8259.03
8258.71
8258.74
8258.45
8258.46
8258.44
8258.21
8258.18
8258.01
8257.76
8257.74
8257.49
8257.3
8257.11
8256.75
8256.69
8256.39
8256.12
8255.82
8255.51
8255.22
8254.99
8255.04
8255.03
8255.38
8255.38
8255.36
8255.4
8255.89
8255.97
8255.96
8256.28
8256.74
8256.79
8256.76
8257.21
8257.18
8257.4
8257.45
8257.61
8257.65
8257.83
8257.87
8257.96
8258.15
8258.41
8258.41
8258.74
8258.73
8259.07
8259.17
8259.29
8259.6
8259.7
8259.9
8259.99
8260.07
8260.09
8260.08
8260.1
8260.02
8261.02
8261.02
8261
8261
8261
8260.97
8260.97
8261.01
8260.96
8261.01
8260.93
8260.87
8260.85
8260.93
8260.87
8260.71
8260.55
8260.49
8260.34
8260.1
8260.01
8259.95
8259.66
8259.6
8259.6
8259.55
8259.4
8259.12
8259.04
8259.04
8259.01
8258.78
8258.5
8258.43
8258.44
8258.4
8258.25
8257.98
8257.93
8257.93
8257.67
8257.41
8257.4
8257.37
8256.95
8256.89
8256.54
8256.25
8256.22
8255.85
8255.48
8255.09
8254.87
8254.6
8254.4
8254.12
8254.15
8254.2
8254.46
8254.86
8254.9
8254.82
8254.87
8255.44
8255.49
8255.47
8255.95
8255.94
8256.24
8256.29
8256.31
8256.56
8256.76
8257.03
8257.1
8257.15
8257.35
8257.44
8257.63
8257.83
8257.88
8257.98
8258.17
8258.43
8258.43
8258.43
8258.76
8258.79
8258.74
8259.05
8259.14
8259.3
8259.59
8259.68
8259.69
8260.02
8260.05
8260.12
8260.21
8260.17
8260.02
8260.06
8260.99
8261.01
8260.98
8260.99
8261
8260.93
8260.98
8260.97
8260.98
8260.95
8260.94
8260.93
8260.91
8260.83
8260.88
8260.92
8261.05
8260.92
8261.12
8260.98
8260.91
8260.65
8260.23
8260.1
8259.91
8259.61
8259.71
8259.7
8259.69
8259.5
8259.19
8259.16
8259.13
8258.89
8258.61
8258.55
8258.5
8258.28
8258.01
8257.99
8257.96
8257.71
8257.37
8257.34
8257.28
8257.3
8257.2
8256.87
8256.4
8256.36
8256.34
8256.05
8255.75
8255.6
8255.16
8254.84
8254.38
8254.29
8254.04
8253.88
8253.7
8253.77
8253.82
8254.02
8254.19
8254.38
8254.25
8254.03
8254.14
8253.98
8253.63
8253.55
8253.45
8253.37
8253.39
8253.32
8253.66
8253.77
8253.6
8253.69
8254.26
8254.27
8254.29
8254.94
8254.97
8254.9
8254.94
8255.24
8255.47
8255.74
8255.8
8255.83
8256.12
8256.37
8256.71
8256.85
8256.99
8257.22
8257.55
8257.63
8257.62
8257.61
8257.83
8258.12
8258.17
8258.16
8258.15
8258.39
8258.72
8258.71
8258.8
8259.09
8259.42
8259.49
8259.61
8259.99
8260.08
8260.11
8260.3
8260.24
8260.19
8260.23
8260.04
8260.77
8260.83
8260.9
8260.95
8260.84
8260.91
8260.91
8260.87
8260.72
8260.86
8260.87
8260.83
8260.74
8260.88
8260.92
8260.73
8260.55
8260.53
8260.6
8260.37
8260.2
8260.26
8260.29
8260.81
8260.9
8260.98
8260.91
8261.11
8261.11
8261.07
8260.92
8260.69
8260.27
8260.2
8260.05
8259.72
8259.61
8259.83
8260.08
8260.42
8260.21
8259.88
8259.7
8259.5
8259.47
8259.42
8259.54
8259.47
8259.61
8259.86
8260.07
8260.33
8260.58
8260.83
8260.97
8261.09
8260.95
8260.95
8260.91
8260.77
8260.86
8260.51
8260.23
8259.92
8259.57
8259.68
8259.62
8259.64
8259.6
8259.6
8259.57
8259.94
8260.58
8260.77
8260.76
8260.53
8260.43
8260.36
8260.43
8260.37
8260.15
8260.05
8259.96
8259.93
8259.86
8260.64
8260.71
8260.58
8260.68
8260.68
8260.77
8260.69
8260.52
8260.6
8260.46
8260.6
8260.63
8260.38
8260.2
8260.03
8260.05
8259.61
8259.51
8259.18
8259
8259
8258.99
8258.88
8258.69
8258.63
8259.05
8258.31
8258.24
8258.18
8258.77
8259.69
8260.05
8260.44
8259.79
8259.52
8259.83
8259.68
8259.79
8259.71
8259.8
8260.61
8260.61
8260.49
8260.51
8260.36
8260.44
8260.46
8260.3
8260.37
8260.15
8260.21
8260.3
8260.35
8260.19
8259.97
8259.99
8259.99
8259.67
8259.63
8259.51
8259.22
8259.03
8258.94
8258.77
8258.54
8258.35
8258.2
8258.16
8258.01
8258.03
8257.9
8257.87
8258.12
8258.6
8259.29
8259.16
8259.12
8259.45
8259.4
8259.62
8259.61
8259.68
8259.78
8260.54
8260.4
8260.24
8260.34
8260.17
8260.18
8260.25
8260.07
8260.1
8259.91
8259.94
8259.71
8259.66
8259.65
8259.33
8259.31
8259.11
8258.78
8258.71
8258.61
8258.53
8258.41
8258.24
8258.08
8257.94
8257.83
8257.74
8257.75
8257.78
8257.69
8257.83
8257.92
8258.09
8258.27
8258.44
8258.56
8258.72
8258.69
8258.37
8258.34
8258.22
8258.08
8257.92
8257.76
8257.65
8257.57
8257.57
8257.52
8257.59
8257.55
8257.81
8257.71
8257.76
8257.73
8257.95
8258.16
8258.6
8258.59
8258.58
8259.06
8259.06
8259.36
8259.33
8259.56
8259.68
8259.79
8259.73
8260.43
8260.51
8260.37
8260.22
8260.05
8260.08
8259.97
8259.77
8259.88
8259.97
8260.02
8259.81
8259.87
8259.65
8259.71
8259.48
8259.47
8259.44
8259.45
8259.11
8259.17
8258.8
8258.8
8258.49
8258.47
8258.31
8258.2
8258.1
8258.06
8257.87
8257.71
8257.58
8257.46
8257.36
8257.4
8257.34
8257.34
8257.41
8257.59
8257.63
8257.8
8257.77
8257.99
8258.2
8258.25
8258.29
8258.39
8258.67
8258.71
8259.02
8259.1
8259.33
8259.55
8259.67
8259.72
8259.85
8259.86
8260.3
8260.36
8260.2
8260.28
8260.12
8259.94
8259.77
8259.52
8259.55
8259.68
8259.79
8259.73
8259.45
8259.64
8259.44
8259.44
8259.38
8258.99
8259.04
8258.79
8258.82
8258.55
8258.54
8258.64
8258.31
8258.34
8258.39
8258.14
8258.15
8257.99
8257.91
8257.74
8257.58
8257.41
8257.27
8257.18
8257.14
8257.16
8257.16
8257.11
8257.23
8257.31
8257.45
8257.62
8257.79
8258
8258.07
8257.76
8257.71
8257.51
8257.33
8257.18
8257.04
8256.91
8256.89
8256.85
8256.7
8256.86
8257.23
8257.33
8257.44
8257.52
8257.63
8257.72
8257.84
8257.79
8258
8257.98
8258.02
8258.28
8258.32
8258.65
8258.79
8259.11
8259.35
8259.58
8259.58
8259.74
8259.81
8259.96
8260.32
8260.39
8260.46
8260.52
8260.38
8260.24
8260.12
8260.09
8260.16
8260
8259.87
8259.83
8259.65
8259.47
8259.24
8259
8258.67
8258.72
8258.53
8258.56
8258.32
8258.34
8258.42
8258.13
8258.24
8258.19
8258.1
8258.06
8257.99
8257.92
8257.93
8257.74
8257.65
8257.42
8257.19
8256.96
8256.71
8256.47
8256.17
8255.95
8256.25
8256.1
8256.44
8256.71
8256.98
8257.24
8257.48
8257.74
8257.82
8257.47
8257.39
8257
8256.6
8256.18
8255.79
8255.09
8254.83
8255.15
8255.98
8256.19
8256.83
8257.01
8257.2
8257.31
8257.66
8257.57
8257.63
8257.69
8257.66
8257.72
8257.82
8257.9
8257.9
8257.96
8258.08
8258.05
8258.32
8258.68
8258.73
8259.07
8259.36
8259.42
8259.64
8259.7
8259.88
8260.04
8260.12
8259.96
8260.04
8259.86
8259.65
8259.39
8259.05
8259.24
8259.29
8259.5
8259.19
8259.2
8258.95
8258.61
8258.44
8258.19
8258.29
8258.32
8258.03
8257.96
8258.06
8258.07
8258.24
8257.97
8257.97
8257.9
8258.13
8257.84
8257.82
8257.81
8257.35
8257.25
8256.72
8256.06
8255
8254.32
8253.53
8252.77
8252.82
8253.54
8254.46
8255.04
8254.6
8253.5
8253.94
8253.19
8252.05
8251.17
8250.31
8250.08
8250.64
8252.31
8251.83
8252.67
8253.01
8253.15
8255.36
8256.12
8256.71
8257.12
8257.21
8257.37
8257.46
8257.56
8257.69
8257.84
8257.96
8258.03
8258.05
8258.04
8258
8257.93
8257.94
8258.09
8257.94
8257.96
8258.04
8258.03
8258.08
8257.9
8258.02
8257.59
8257.49
8256.52
8256.41
8255.3
8254.06
8252.46
8251.78
8250.6
8249.82
8248.87
8247.9
8247.33
8248.28
8249.46
8249.07
8249.5
8249.34
8251.97
8252.06
8252.98
8255.01
8256.45
8257.03
8257.15
8257.78
8257.73
8257.7
8257.5
8257.53
8257.61
8257.61
8257.77
8257.76
8257.68
8257.68
8257.7
8257.9
8257.91
8258.08
8258.09
8258.42
8258.39
8258.43
8258.83
8259.15
8259.21
8259.48
8259.56
8259.78
8259.78
8259.88
8259.96
8259.78
8259.54
8259.26
8258.96
8258.99
8258.67
8258.89
8258.59
8258.41
8258.22
8258.27
8257.92
8257.82
8257.77
8257.83
8257.98
8257.83
8257.88
8257.9
8258.04
8258.11
8258.25
8258.32
8258.05
8258.19
8257.78
8256.16
8255.06
8254.58
8252.9
8250.03
8249.86
8248.88
8248.88
8247.96
8247.2
8246.31
8245.87
8245.06
8244.87
8245.12
8247.18
8247.07
8249.02
8249.17
8250.17
8250.79
8253.83
8255.77
8258.94
8258.49
8258.2
8257.93
8257
8257.29
8257.28
8257.42
8257.45
8257.29
8257.28
8257.51
8257.46
8257.35
8257.59
8257.61
8257.84
8258.1
8258.13
8258.37
8258.43
8258.54
8258.94
8259.01
8259.3
8259.31
8259.42
8259.09
8258.81
8258.78
8258.93
8258.61
8258.37
8258.39
8258.17
8257.97
8257.8
8257.67
8257.63
8257.57
8257.69
8257.75
8257.79
8257.71
8257.63
8257.69
8257.91
8257.93
8258.23
8258.14
8258.56
8258.8
8258.62
8257.93
8259.15
8258.03
8256.04
8254.34
8251.35
8252
8254.55
8256.64
8259.21
8257.7
8257.15
8257.56
8257.82
8256.77
8256.48
8256.51
8256.41
8256.77
8256.9
8256.99
8257.14
8256.99
8256.98
8257.21
8257.16
8257.12
8257.31
8257.28
8257.34
8257.63
8257.87
8257.9
8258.16
8258.28
8258.54
8258.59
8258.56
8258.33
8258.57
8258.22
8258.11
8257.85
8258.12
8257.9
8257.74
8257.66
8257.63
8257.63
8257.67
8257.56
8257.46
8257.44
8257.29
8257.45
8257.53
8257.93
8257.97
8258.17
8258.42
8258.72
8259.24
8259.34
8259.21
8259.35
8259.12
8258.74
8258.36
8258.01
8258.01
8257.18
8257.07
8257.09
8256.97
8256.77
8256.79
8256.97
8256.34
8256.24
8256.41
8256.58
8256.34
8256.33
8256.28
8256.46
8256.45
8256.73
8256.7
8256.94
8256.91
8256.86
8256.81
8257.04
8257.02
8256.96
8257.16
8257.18
8257.25
8257.3
8257.35
8257.38
8257.67
8257.7
8257.99
8258.11
8257.77
8257.64
8257.67
8257.51
8257.51
8257.51
8257.52
8257.51
8257.39
8257.21
8257.25
8257.17
8256.99
8257.12
8257.09
8257.2
8257.22
8257.21
8256.74
8256.72
8256.52
8256.55
8256.82
8256.21
8256.07
8256.1
8255.85
8255.85
8256.07
8256.26
8255.97
8255.94
8255.97
8255.85
8256.21
8256.42
8256.39
8256.66
8256.64
8256.71
8256.74
8256.69
8256.9
8256.98
8257.01
8257.11
8257.03
8257.08
8257.22
8257.27
8257.33
8257.43
8257.43
8257.42
8257.35
8257.56
8257.41
8257.43
8257.43
8257.39
8257.32
8257.23
8257.05
8257.07
8256.86
8256.57
8256.72
8256.7
8256.76
8256.74
8256.57
8256.71
8256.21
8256.18
8256.05
8256.01
8256
8256.1
8255.7
8255.58
8255.53
8255.13
8255.01
8255.27
8255.59
8255.23
8255.75
8255.59
8255.68
8256.14
8256.08
8256.48
8256.5
8256.43
8256.55
8256.61
8256.75
8256.84
8256.76
8256.99
8256.96
8257.02
8257.18
8257.23
8257.14
8257.18
8257.36
8257.37
8257.42
8257.39
8257.33
8257.24
8257.11
8256.86
8256.76
8256.4
8256.3
8255.72
8255.9
8256.16
8256.19
8255.98
8256.04
8255.63
8255.61
8255.53
8255.5
8255.41
8255.41
8255.51
8254.95
8255.01
8255.03
8254.57
8254.62
8254.76
8254.93
8254.59
8254.57
8254.55
8255.09
8254.87
8254.96
8255.6
8255.55
8255.54
8256.09
8256.09
8256.09
8256.21
8256.31
8256.7
8256.78
8256.87
8257.01
8257.1
8257.08
8257.23
8257.28
8257.21
8257.23
8257.18
8257.11
8257
8257.07
8257.18
8257.24
8257.04
8256.94
8256.78
8256.55
8256.91
8256.68
8256.34
8255.89
8255.56
8255.15
8255.35
8255.37
8255.41
8255.42
8255.45
8255.02
8254.98
8254.82
8254.76
8254.75
8254.71
8254.68
8254.26
8254.36
8253.99
8254.03
8254.16
8254.28
8254.14
8254.33
8254.38
8254.29
8254.23
8254.19
8254.78
8254.62
8254.72
8255.53
8255.58
8256
8256.09
8256.18
8256.26
8256.41
8256.5
8256.85
8256.96
8257.1
8257.04
8257.05
8256.96
8256.95
8256.79
8256.53
8256.23
8256.22
8256.22
8255.81
8255.47
8255.14
8255.1
8254.54
8254.79
8254.84
8254.87
8254.34
8254.35
8254.23
8254.16
8254.1
8254.02
8254.17
8254.34
8253.84
8253.79
8253.88
8253.68
8253.78
8253.89
8253.97
8253.84
8253.84
8253.8
8253.86
8253.91
8253.93
8253.96
8253.99
8254.02
8254.06
8254.13
8254.23
8254.23
8253.93
8254.13
8254.18
8254.16
8253.79
8253.74
8253.7
8253.79
8253.78
8253.74
8253.67
8253.76
8253.82
8253.51
8253.62
8253.69
8253.28
8253.33
8253.61
8253.78
8253.91
8253.82
8254.08
8254.02
8253.92
8253.86
8254.27
8254.11
8254.04
8254.59
8254.69
8254.84
8254.93
8255.65
8255.74
8255.83
8255.99
8256.45
8256.46
8256.12
8255.73
8255.65
8255.58
8255.2
8254.95
8254.93
8254.95
8255.13
8255.43
8254.98
8254.6
8254.2
8253.99
8253.73
8253.49
8253.67
8253.68
8253.71
8253.4
8253.4
8253.3
8253.58
8253.58
8253.56
8253.49
8253.57
8253.77
8253.23
8253.28
8253.28
8253.12
8253.26
8252.7
8252.62
8252.98
8253.43
8253.67
8253.85
8253.76
8253.98
8253.96
8254.04
8253.88
8253.71
8254.14
8254.16
8254.07
8254.12
8254.75
8254.81
8255.05
8255.18
8255.14
8255.69
8255.04
8254.72
8254.46
8254.18
8253.68
8253.63
8253.46
8253.25
8253.34
8252.86
8253.07
8253.05
8252.67
8252.66
8252.58
8252.99
8252.92
8252.95
8253.07
8253.35
8253.3
8252.65
8252.78
8252.22
8252.05
8251.39
8251.96
8252.47
8253.1
8253.12
8253.6
8253.78
8253.71
8253.65
8253.58
8253.68
8253.62
8253.83
8253.77
8253.69
8253.62
8254.17
8254.14
8254.16
8254.17
8254.58
8254.89
8255.03
8254.73
8254.86
8254.57
8254.21
8253.94
8253.67
8253.51
8253.49
8253.38
8253.3
8253.43
8253.6
8253.28
8253.09
8252.8
8252.58
8252.14
8252.51
8252.49
8252.38
8252.03
8252.08
8251.97
8252.42
8252.35
8252.34
8252.49
8252.81
8252.69
8251.74
8251.75
8252.05
8250.97
8250.87
8250.15
8250.78
8251.43
8251.95
8252.02
8252.87
8252.56
8252.45
8253.28
8253.66
8253.72
8253.66
8253.63
8253.56
8253.57
8253.56
8253.78
8253.69
8253.98
8253.96
8254.02
8253.99
8253.7
8253.84
8253.33
8253.37
8252.83
8252.81
8252.38
8252.17
8251.8
8251.64
8251.2
8251.57
8251.54
8251.01
8251.04
8250.91
8250.74
8250.6
8250.46
8250.48
8250.85
8249.62
8249.6
8248.56
8249.15
8249.89
8250.79
8250.85
8251.81
8251.45
8251.34
8252.38
8251.98
8251.96
8252.94
8252.86
8252.9
8252.9
8252.92
8252.98
8253.62
8253.44
8253.49
8253.48
8253.27
8253.31
8253.08
8252.78
8252.5
8252.1
8252.01
8251.73
8251.41
8251.41
8251.28
8250.8
8250.44
8250.81
8250.77
8250.6
8250.18
8250.16
8249.96
8249.81
8249.66
8249.43
8249.37
8249.72
8248.42
8248.19
8247.17
8247.56
8247.92
8248.84
8249.12
8250.5
8250.02
8250.04
8251.3
8250.84
8250.82
8251.84
8251.87
8251.94
8252.94
8252.92
8252.89
8252.89
8253.02
8252.96
8252.6
8252.38
8252.51
8252.19
8251.67
8251.7
8251.54
8251.26
8250.7
8250.6
8250.27
8249.79
8249.8
8249.86
8249.98
8249.38
8249.29
8248.99
8248.71
8248.35
8248.27
8248.42
8247.32
8247.08
8246.05
8245.82
8245.96
8246.22
8246.25
8246.32
8246.13
8246
8246.61
8247.19
8247.84
8248.43
8248.89
8249.19
8249.53
8249.39
8249.47
8248.99
8249.36
8249.39
8249.3
8249.1
8248.31
8248.16
8247.83
8247.53
8247.1
8246.85
8245.88
8245.73
8245.22
8245.2
8245.33
8245.62
8245.88
8246.85
8247.06
8247.95
8248.3
8248.57
8249.91
8249.47
8249.51
8250.73
8250.85
8250.89
8250.99
8251.89
8251.93
8251.96
8251.93
8251.69
8251.7
8251.71
8251.04
8250.95
8250.84
8250.2
8250.25
8250.02
8249.7
8249.55
8249.84
8250.15
8249.51
8249.11
8249.06
8248.94
8249.42
8248.78
8248.66
8247.76
8248.22
8248.21
8248.27
8247.92
8247.12
8246.94
8246.6
8246.18
8246.17
8245.99
8245.21
8245.19
8244.03
8244.17
8244.17
8244.07
8243.96
8244.12
8244.23
8244.13
8244.08
8244
8244.62
8245.17
8245.74
8246.24
8246.66
8247.17
8247.2
8247.25
8246.31
8246.88
8246.91
8246.94
8246.38
8246.21
8245.83
8245.32
8244.46
8244.47
8244.13
8243.54
8243.67
8243.38
8243.47
8243.4
8243.27
8243.26
8243.31
8243.32
8243.31
8243.31
8243.64
8244.06
8244.51
8245
8245.4
8245.74
8245.78
8245.86
8245.05
8245.22
8245.36
8245.23
8244.9
8244.97
8244.56
8243.99
8243.69
8243.25
8243.28
8243.15
8243.25
8243
8243.01
8242.95
8242.79
8242.77
8242.84
8242.93
8243.1
8243.33
8243.66
8244.05
8244.38
8244.73
8245.05
8245.15
8245.17
8244.49
8244.53
8244.29
8243.74
8243.65
8243.45
8243.58
8243.31
8243.13
8243.1
8242.99
8243.07
8243.05
8242.9
8242.83
8242.76
8242.67
8242.67
8242.98
8242.82
8243.19
8243.26
8243.58
8244.38
8244.6
8245.27
8246.26
8246.47
8246.87
8247.97
8247.93
8248.24
8249.45
8249.73
8249.73
8249.88
8250.95
8251.13
8251.17
8251.94
8251.95
8251.62
8251.69
8251.42
8251.6
8252.05
8252.35
8252.68
8252.15
8251.88
8251.5
8251.21
8250.71
8250.4
8250.41
8250.08
8249.71
8249.78
8249.65
8249.32
8249.04
8248.98
8248.7
8248.14
8248.27
8248.08
8247.97
8248.19
8248.44
8248.47
8249.03
8249.31
8249.44
8250.21
8250.11
8250.22
8250.19
8249.92
8250.17
8249.95
8249.66
8249.38
8249.06
8248.92
8248.34
8248.52
8248.61
8248.5
8247.97
8247.69
8247.46
8246.76
8246.91
8246.75
8246.63
8245.87
8245.77
8245.91
8245.88
8246.63
8246.82
8247.25
8248.13
8248.13
8248.98
8249.05
8249.95
8249.96
8249.61
8249.31
8249.61
8249.22
8249.48
8249.12
8248.74
8248.59
8248.41
8248.13
8247.79
8247.78
8248.2
8247.93
8247.3
8246.85
8246.32
8246.24
8246.16
8246.01
8245.61
8245.18
8245.43
8244.58
8244.4
8244.34
8244.76
8244.94
8245.08
8244.55
8244.08
8244.11
8244.16
8244.2
8243.56
8243.6
8243.27
8243.2
8243.1
8243.01
8242.91
8242.78
8242.79
8242.82
8242.79
8242.74
8242.56
8242.54
8242.57
8242.59
8242.64
8242.74
8242.84
8242.89
8242.96
8243.08
8243.26
8243.18
8242.93
8242.69
8242.75
8242.76
8242.76
8242.67
8242.82
8242.65
8242.72
8242.55
8242.62
8242.53
8242.49
8242.37
8242.36
8242.4
8242.44
8242.54
8242.6
8242.68
8242.76
8242.83
8242.87
8242.88
8242.95
8243.3
8243.18
8243.76
8243.84
8243.29
8243.55
8243.47
8242.97
8242.97
8242.71
8242.51
8242.76
8242.56
8242.7
8242.61
8242.57
8242.5
8242.49
8242.59
8242.46
8242.58
8242.51
8242.44
8242.35
8242.25
8242.28
8242.17
8242.36
8242.38
8242.42
8242.34
8242.4
8242.37
8242.55
8242.5
8242.69
8242.88
8242.9
8243.2
8243.34
8244.24
8244.09
8244.17
8245
8246.3
8246.71
8247.16
8247.26
8248.26
8248.6
8248.64
8248.67
8248.32
8248.06
8247.83
8247.63
8246.97
8246.14
8245.99
8246.56
8245.79
8245.87
8246
8245.87
8245.36
8245.24
8244.53
8244.46
8244.43
8244.61
8244.6
8244.57
8244.55
8244.46
8244.55
8245.43
8246.34
8246.44
8247.63
8247.66
8247.8
8248.27
8248.25
8247.37
8247.14
8246.19
8246.96
8246.91
8247.36
8247.28
8246.63
8245.98
8246.02
8245.27
8245.19
8244.8
8243.91
8244.01
8243.47
8243.55
8243.63
8243.71
8243.21
8243.31
8243.24
8243.18
8243.06
8243.1
8243.19
8243.2
8243.27
8243.76
8243.74
8243.56
8243.21
8243.05
8242.95
8243.3
8243.36
8242.59
8242.39
8242.56
8242.47
8242.59
8242.41
8242.54
8242.47
8242.41
8242.46
8242.37
8242.28
8242.4
8242.29
8242.38
8242.35
8242.36
8242.24
8242.21
8242.25
8242.24
8242.31
8242.35
8242.39
8242.44
8242.46
8242.46
8242.49
8242.49
8242.33
8242.33
8242.37
8242.24
8242.31
8242.2
8242.32
8242.03
8242.01
8241.99
8242.08
8242.11
8242.12
8242.15
8242.24
8242.3
8242.28
8242.24
8242.14
8242.16
8242.31
8242.23
8242.14
8242.2
8242.16
8242.16
8242.1
8242.05
8242.15
8242.13
8242.3
8242.51
8242.33
8242.6
8242.83
8243.01
8243.27
8244.05
8244.35
8244.7
8245.54
8245.43
8245.12
8245.67
8245.58
8245.55
8244.83
8244.05
8244.15
8244.56
8243.94
8243.91
8244.28
8244.03
8243.66
8243.94
8243.5
8243.67
8243.36
8243.14
8243.04
8243.25
8243.51
8242.96
8242.72
8242.6
8242.37
8242.53
8242.51
8242.33
8242.61
8242.45
8242.82
8243.34
8243.14
8243.59
8243.67
8244.11
8244.58
8244.66
8245.53
8245.34
8244.86
8244.81
8244
8244.58
8244.59
8243.54
8243.68
8243.36
8242.89
8242.6
8242.56
8242.3
8242.37
8242.45
8242.53
8242.6
8242.25
8242.16
8242.08
8242.18
8242.11
8242.15
8242.08
8241.85
8241.92
8241.88
8241.76
8241.69
8241.76
8241.79
8241.82
8241.98
8242
8242.15
8242.25
8242.34
8242.23
8242.2
8242.14
8242.02
8242.07
8242.07
8242.08
8242.06
8242.08
8242.11
8242.15
8242.18
8242.19
8242.29
8242.14
8242.04
8242.03
8242.01
8241.91
8241.67
8241.58
8241.53
8241.5
8241.51
8241.51
8241.59
8241.72
8241.82
8241.95
8242.14
8242.29
8242.33
8242.32
8242.25
8242.25
8242.26
8242.3
8242.26
8242.19
8242.16
8242.17
8242.11
8242.06
8242.02
8242
8242.02
8242.01
8242.03
8242.48
8242.55
8242.48
8242.62
8242.68
8242.7
8242.25
8242.16
8242.18
8242.1
8242.16
8242.18
8242.17
8242.07
8242.07
8242.25
8242.25
8242.12
8242.27
8242.1
8242.24
8242.07
8242.02
8242.05
8242.07
8242.25
8242.37
8242.52
8242.45
8242.86
8243.11
8243.27
8243.19
8243.17
8242.96
8242.97
8243.08
8242.72
8242.85
8242.59
8242.7
8242.72
8242.67
8242.68
8242.67
8242.49
8242.3
8242.16
8242.11
8242.14
8242.02
8241.78
8241.84
8241.49
8241.44
8241.13
8241.15
8241.11
8241.06
8240.99
8241.05
8241.18
8241.33
8241.64
8241.88
8242.1
8242.28
8242.36
8242.33
8242.3
8242.27
8242.28
8242.26
8242.23
8242.22
8242.19
8242.17
8242.14
8242.1
8242.07
8242.03
8242.04
8242.06
8241.96
8242.02
8242.07
8242.14
8242.19
8242.29
8242.34
8242.15
8242.18
8242.16
8242.1
8242.1
8242.02
8242.12
8242.02
8241.85
8241.77
8241.68
8241.33
8241.29
8241
8240.93
8240.91
8240.74
8240.69
8240.72
8240.75
8240.77
8240.92
8241
8241.01
8241.22
8241.45
8241.8
8241.86
8241.8
8241.55
8241.3
8241.02
8241.01
8241.05
8241.06
8241.07
8241.1
8241.18
8241.31
8241.17
8241.17
8241.17
8240.86
8240.94
8240.7
8240.66
8240.77
8240.74
8240.57
8240.53
8240.53
8240.6
8240.67
8240.71
8240.84
8240.91
8241.05
8241.08
8241.45
8241.65
8242.24
8242.48
8242.36
8242.22
8242.09
8241.92
8241.87
8241.97
8242.19
8242.22
8242.22
8242.28
8242.36
8242.42
8242.3
8242.27
8242.3
8242.27
8242.23
8242.18
8242.16
8242.15
8242.17
8242.08
8242.1
8242.07
8242.01
8242.15
8242.23
8242.12
8242.26
8242.12
8242.2
8242.07
8242.06
8242.05
8242.07
8242.08
8242.12
8242.18
8242.15
8242.11
8242.11
8242.02
8241.88
8241.7
8241.55
8241.56
8241.53
8241.57
8241.71
8241.91
8242.11
8242.27
8242.19
8242.28
8242.19
8242.15
8242.09
8242.11
8242.17
8242.22
8242.26
8242.22
8242.18
8242.14
8242.08
8242.12
8242.16
8242.22
8242.24
8242.23
8242.22
8242.23
8242.25
8242.23
8242.23
8242.24
8242.25
8242.25
8242.26
8242.27
8242.23
8242.27
8242.35
8242.21
8242.23
8241.89
8241.61
8241.39
8241.24
8241.12
8241.11
8240.85
8240.75
8240.69
8240.72
8240.55
8240.54
8240.46
8240.51
8240.39
8240.35
8240.36
8240.38
8240.42
8240.56
8240.62
8240.71
8240.84
8240.93
8241.03
8240.86
8240.81
8240.77
8240.71
8240.61
8240.68
8240.63
8240.61
8240.6
8240.62
8240.68
8240.69
8240.67
8240.69
8240.67
8240.48
8240.48
8240.34
8240.31
8240.25
8240.11
8240.07
8240.01
8239.98
8240
8240.2
8240.36
8240.59
8240.69
8240.81
8240.87
8240.91
8241.01
8240.8
8240.84
8241.08
8241.05
8241.25
8241.91
8242.49
8242.33
8242.1
8241.87
8241.61
8241.32
8241.19
8241.45
8241.55
8241.93
8242.03
8242.21
8242.22
8242.25
8242.27
8242.25
8242.24
8242.22
8242.19
8242.21
8242.17
8242.14
8242.18
8242.17
8242.19
8242.05
8241.88
8241.8
8241.75
8241.94
8241.84
8241.58
8241.36
8241.25
8241.11
8240.99
8241.04
8241.01
8240.77
8240.72
8240.65
8240.65
8240.48
8240.48
8240.3
8240.01
8239.98
8239.67
8239.28
8239.32
8239.15
8239.05
8239.05
8239.43
8239.64
8240.26
8240.61
8240.76
8240.84
8240.86
8240.84
8240.86
8240.73
8240.79
8240.68
8240.89
8241.47
8241.66
8242.53
8242.33
8242.04
8241.93
8241.62
8241.18
8240.9
8240.55
8240.54
8240.85
8241.19
8241.06
8241.31
8241.47
8241.65
8241.72
8241.98
8241.98
8242.09
8242.16
8242.09
8242.22
8242.24
8242.26
8242.25
8242.25
8242.24
8242.24
8242.22
8242.19
8242.24
8242.13
8242.09
8242
8241.9
8242.28
8242.3
8242.41
8242.3
8242.27
8242.26
8242.25
8242.16
8242.11
8242.19
8242.13
8242.23
8242.43
8242.45
8242.15
8241.73
8241.63
8241.43
8241.36
8241.28
8241.16
8240.99
8240.9
8240.9
8240.9
8240.95
8241.03
8241.02
8241.35
8241.03
8240.73
8240.72
8240.69
8240.67
8240.68
8240.6
8240.67
8240.53
8240.48
8240.29
8239.78
8239.34
8238.62
8238.39
8237.82
8237.79
8237.72
8237.71
8238.14
8238.14
8239.1
8240.13
8240.72
8240.88
8240.9
8240.84
8240.77
8240.74
8240.62
8240.66
8240.57
8240.56
8240.64
8241.15
8240.93
8241.16
8241.71
8242.54
8242.39
8242.09
8241.9
8241.54
8241.46
8241.3
8240.83
8240.53
8240.03
8239.5
8238.8
8238.67
8239.2
8239.85
8240.43
8240.28
8240.57
8240.76
8241.32
8241.45
8241.66
8241.98
8242.07
8242.16
8242.22
8242.27
8242.28
8242.32
8242.3
8242.25
8242.27
8242.33
8241.96
8241.65
8241.67
8241.44
8241.23
8241.12
8240.96
8240.91
8240.77
8240.73
8240.65
8240.69
8240.72
8240.67
8240.57
8240.65
8240.54
8240.31
8239.46
8238.87
8237.89
8236.94
8237.1
8236.66
8235.74
8235.81
8235.59
8235.31
8234.74
8235.88
8236.68
8238.12
8239.87
8240.99
8241.06
8240.93
8240.74
8240.61
8240.56
8240.47
8240.5
8240.39
8240.42
8240.44
8240.49
8240.89
8240.89
8241.18
8242.02
8242.59
8242.41
8242.14
8241.93
8241.61
8241.43
8241.17
8240.88
8240.86
8241.16
8241.46
8241.66
8241.62
8241.88
8242.07
8242.18
8242.26
8242.3
8242.29
8242.34
8242.37
8242.38
8242.34
8242.03
8241.66
8241.34
8241.37
8241.16
8240.99
8240.85
8240.78
8240.71
8240.6
8240.52
8240.53
8240.59
8240.76
8240.92
8240.83
8240.94
8240.34
8239.03
8238.35
8236.85
8235.6
8234.46
8234.67
8233.71
8233.49
8232.35
8232.53
8232.43
8232.38
8233.5
8234.58
8235.15
8236.66
8239.34
8241.44
8241.3
8240.86
8240.52
8240.3
8240.26
8240.2
8240.06
8240.35
8240.2
8240.12
8240.15
8240.18
8240.45
8240.51
8240.61
8240.99
8241.25
8241.98
8242.26
8241.66
8241.71
8241.56
8241.05
8240.68
8240.77
8240.47
8240.54
8240.54
8240.55
8240.59
8240.64
8240.56
8240.51
8240.51
8240.22
8240.21
8240.29
8240.46
8240.73
8240.62
8241.01
8241.5
8240.54
8239.48
8240.11
8238.33
8236.68
8235.54
8234.09
8232.88
8232.35
8231.24
8231.27
8231.41
8230.56
8230.64
8230.66
8230.79
8231.63
8231.92
8232.02
8232.78
8233.14
8233.2
8232.32
8232.12
8232.31
8232.41
8232.5
8232.8
8231.22
8231.52
8230.03
8230.24
8229.54
8228.69
8229.24
8229.05
8229.27
8229.4
8229.43
8229.67
8230.42
8230.96
8231.77
8232.13
8232.98
8233.04
8234.42
8236.34
8238.93
8240.41
8242.07
8241.19
8240.38
8239.95
8239.78
8239.69
8239.9
8239.7
8239.77
8239.71
8240.06
8240.04
8240.09
8240.18
8240.41
8240.43
8240.43
8240.46
8240.43
8240.53
8240.55
8240.58
8240.68
8240.59
8240.63
8240.84
8240.81
8240.36
8239.79
8240.01
8240.31
8240.58
8240.75
8240.64
8240.36
8239.8
8239.05
8238.81
8238.58
8238.76
8238.92
8239.12
8239.19
8239.24
8239.73
8239.81
8239.95
8240.2
8240.23
8240.25
8240.35
8240.53
8240.22
8240.26
8239.65
8239.07
8238.94
8238.94
8239.43
8239.66
8239.97
8240
8240.11
8239.5
8239.48
8239.47
8239.49
8239.67
8239.38
8240.06
8238.34
8238.19
8238.15
8237.85
8237.79
8237.66
8237.42
8237.25
8236.89
8237.05
8237.11
8237.16
8237.34
8237.18
8236.88
8237.38
8237.63
8237.75
8237.79
8237.99
8237.89
8236.46
8236.34
8236.17
8237.09
8236.24
8236.05
8235.98
8235.9
8235.9
8235.79
8235.79
8235.9
8236.09
8236.33
8236.6
8237.79
8238.01
8238.31
8238.41
8238.45
8238.26
8238.72
8239.39
8239.34
8239.41
8239.11
8239.14
8238.06
8237.85
8236.49
8235.17
8235.16
8235.12
8235
8234.9
8234.76
8234.67
8234.64
8234.66
8234.66
8234.74
8234.87
8234.95
8235.06
8235.24
8235.12
8236.55
8237.02
8237.02
8236.9
8237.49
8236.5
8236.69
8238.13
8238.02
8236.58
8235.18
8234.06
8234.09
8234.1
8233.99
8233.74
8233.61
8233.44
8233.36
8233.33
8233.33
8233.37
8233.44
8233.5
8233.58
8233.74
8233.78
8233.74
8233.74
8235.1
8236.51
8237.08
8236.49
8236.56
8236.66
8236.56
8236.49
8235.16
8233.97
8232.42
8232.63
8232.42
8232.19
8232.05
8231.94
8231.9
8231.9
8231.93
8231.94
8231.96
8232.04
8232.11
8232.17
8232.13
8232.16
8232.2
8232.28
8233.84
8235.28
8235.23
8233.97
8232.51
8232.66
8232.7
8231.15
8231.02
8230.89
8230.63
8230.56
8230.45
8230.4
8230.35
8230.4
8230.46
8230.47
8230.49
8230.68
8230.74
8230.55
8230.69
8230.75
8230.91
8230.82
8231.76
8230.97
8229.77
8229.67
8229.6
8229.65
8229.32
8229.17
8229.04
8229
8229
8229.17
8229.1
8228.95
8229.04
8228.98
8229.03
8229.76
8228.76
8229.24
8229.23
8229.31
8229.39
8229.5
8229.56
8228.35
8228.24
8229.6
8229.54
8228.24
8228.31
8228.18
8228.04
8227.89
8227.82
8227.69
8227.71
8227.76
8227.73
8227.72
8227.81
8227.99
8228.13
8228.24
8228.29
8227.41
8227.49
8227.54
8227.59
8227.64
8227.64
8227.6
8227.52
8227.36
8227.07
8226.87
8226.87
8226.82
8226.71
8226.86
8227.05
8227.2
8227.32
8226.64
8226.77
8226.87
8226.97
8227.05
8227.12
8227.2
8227.26
8227.22
8227.13
8226.91
8226.71
8226.63
8226.8
8226.97
8227.07
8227.08
8227.19
8226.64
8226.58
8226.71
8226.8
8226.79
8226.73
8226.52
8226.39
8225.93
8225.85
8226.32
8226.43
8226.53
8225.88
8225.98
8226.11
8226.22
8226.36
8226.46
8225.79
8225.99
8226.1
8226.21
8226.31
8226.23
8225.98
8225.88
8225.18
8225.84
8225.9
8225.95
8226.05
8226.16
8226.3
8226.47
8225.83
8226.03
8225.28
8225.03
8225.18
8225.18
8225.26
8225.44
8225.53
8225.66
8224.81
8224.92