/*--------------------------------*- C++ -*----------------------------------*\
| =========                 |                                                 |
| \\      /  F ield         | OpenFOAM: The Open Source CFD Toolbox           |
|  \\    /   O peration     | Version:  5.0                                   |
|   \\  /    A nd           | Web:      www.OpenFOAM.org                      |
|    \\/     M anipulation  |                                                 |
\*---------------------------------------------------------------------------*/
FoamFile
{
    version     2.0;
    format      ascii;
    class       volVectorField;
    location    "60";
    object      U;
}
// * * * * * * * * * * * * * * * * * * * * * * * * * * * * * * * * * * * * * //

dimensions      [0 1 -1 0 0 0 0];

internalField   nonuniform List<vector> 
36177
(
(-0.00689184 0.00785693 -0.0125431)
(-0.00576992 0.00670682 -0.0122348)
(-0.00692819 0.00886011 -0.0166252)
(-0.00711352 0.0108946 -0.0187492)
(-0.00622156 0.0120561 -0.0197707)
(-0.00395378 0.0104599 -0.0152494)
(-0.00499013 0.0155836 -0.0184193)
(-0.00774679 0.016303 -0.0142084)
(-0.00823268 0.01593 -0.0181635)
(-0.00892367 0.0132889 -0.0166727)
(-0.00844663 0.0108976 -0.015717)
(-0.0199484 0.0267376 -0.0301707)
(-0.016682 0.0195716 -0.024341)
(-0.00694901 0.00670654 -0.0149769)
(-0.0075396 0.00575978 -0.0122564)
(-0.00713344 0.00461866 -0.0117051)
(-0.00978773 0.00640139 -0.0179265)
(-0.0115258 0.0104059 -0.0239469)
(-0.0124917 0.0144621 -0.0290652)
(-0.0118715 0.0169671 -0.0311)
(-0.00800799 0.0159365 -0.0276253)
(-0.00323642 0.0133773 -0.0195438)
(-0.00206471 0.015664 -0.0203499)
(-0.0051351 0.0166955 -0.0168511)
(-0.00411547 0.0203251 -0.012884)
(-0.00632041 0.023058 -0.0102083)
(-0.0117674 0.0318529 -0.0050436)
(-0.00671808 0.0474795 0.0193886)
(-0.00786518 0.0244575 0.000521232)
(-0.00741631 0.0185665 0.00917978)
(-0.0100862 0.0340285 0.043502)
(-0.00510336 0.00628712 -0.00551822)
(-0.00574281 0.00646595 -0.00720943)
(-0.00579679 0.00592866 -0.00973462)
(-0.0058495 0.00543033 -0.00839544)
(-0.00940775 0.00943117 -0.0134379)
(-0.0190226 0.0265142 -0.0212387)
(-0.0137126 0.0180818 -0.015506)
(-0.00606554 0.00743772 -0.00871791)
(-0.0166767 0.0188728 -0.0187436)
(-0.00735122 0.00598936 -0.0102203)
(-0.00801189 0.00567299 -0.011008)
(-0.00755555 0.00473671 -0.0129239)
(-0.00995375 0.00399755 -0.0140752)
(-0.009695 0.00423951 -0.0140365)
(-0.0140411 0.00684165 -0.0239786)
(-0.0109857 0.00609102 -0.0238291)
(-0.00843899 0.00470729 -0.0201646)
(-0.0109268 0.00850944 -0.0270403)
(-0.0116706 0.0117978 -0.0314738)
(-0.0103511 0.014351 -0.033021)
(-0.00879069 0.0147003 -0.031298)
(-0.00845493 0.0129746 -0.0227587)
(-0.0063426 0.014753 -0.0251918)
(-0.00407527 0.0109913 -0.0176442)
(-0.00547338 0.0133494 -0.0248184)
(-0.00840361 0.0139805 -0.0301955)
(-0.0108785 0.0128423 -0.031751)
(-0.0105611 0.0101808 -0.0292704)
(-0.00940204 0.00718408 -0.0227044)
(-0.0238162 0.0167859 -0.0429996)
(-0.0313728 0.018252 -0.0499877)
(-0.0159465 0.00645683 -0.0263182)
(-0.0139924 0.00730517 -0.0269664)
(-0.0117308 0.00703459 -0.0258656)
(-0.00933054 0.00587234 -0.0213693)
(-0.0109485 0.00737292 -0.0279686)
(-0.0116488 0.0117451 -0.0322623)
(-0.0118591 0.0149865 -0.0349978)
(-0.0113402 0.0158737 -0.0340659)
(-0.0119954 0.0148613 -0.0275281)
(-0.00990408 0.0167683 -0.033635)
(-0.00775574 0.0126069 -0.0230927)
(-0.00881539 0.0142215 -0.0285052)
(-0.00988016 0.0143456 -0.0327932)
(-0.0111185 0.0128186 -0.033171)
(-0.0112707 0.010116 -0.0300574)
(-0.0103977 0.00743872 -0.0239255)
(-0.0267148 0.0161306 -0.0498881)
(-0.0355171 0.0189625 -0.0568049)
(-0.0170726 0.00795831 -0.0284637)
(-0.0134147 0.00831992 -0.0261898)
(-0.017048 0.0123138 -0.0386128)
(-0.0127274 0.0113796 -0.0326054)
(-0.0101418 0.00993759 -0.0255885)
(-0.012535 0.0112933 -0.0310942)
(-0.0142694 0.0153566 -0.0343812)
(-0.0154084 0.0168306 -0.035737)
(-0.0149217 0.0157754 -0.0341928)
(-0.013399 0.0132627 -0.0277394)
(-0.0128757 0.0149799 -0.0314955)
(-0.0096337 0.0110254 -0.023935)
(-0.0106673 0.0153737 -0.0301887)
(-0.0126122 0.0169787 -0.0311681)
(-0.0122904 0.0168968 -0.0342991)
(-0.011977 0.0155067 -0.0334007)
(-0.010921 0.0125824 -0.0288051)
(-0.028343 0.0234857 -0.0621248)
(-0.0379057 0.0284802 -0.0716784)
(-0.0186304 0.0137582 -0.0367858)
(-0.0146258 0.0130659 -0.0315625)
(-0.0191858 0.0160999 -0.0433216)
(-0.0141207 0.0125874 -0.0354276)
(-0.0106978 0.00993169 -0.0269394)
(-0.0126379 0.0098934 -0.0314508)
(-0.0137753 0.012259 -0.0341714)
(-0.0132679 0.0118802 -0.0348092)
(-0.011067 0.00993895 -0.0317851)
(-0.00833386 0.00827153 -0.0256958)
(-0.00882396 0.00998496 -0.0281895)
(-0.00586092 0.00458736 -0.0203495)
(-0.00948954 0.00859637 -0.0275904)
(-0.0137764 0.0120229 -0.0303468)
(-0.0143516 0.0143902 -0.0339834)
(-0.0141215 0.0152842 -0.0336626)
(-0.0124967 0.0144092 -0.0299886)
(-0.0307534 0.0274309 -0.0680005)
(-0.0394494 0.0316563 -0.0789919)
(-0.0195098 0.0143819 -0.0398948)
(-0.0146938 0.0125519 -0.0330954)
(-0.0185693 0.0142447 -0.0432492)
(-0.0136106 0.00983701 -0.0334759)
(-0.00839722 0.00640975 -0.0241874)
(-0.00921542 0.00531906 -0.0287722)
(-0.00919131 0.00773001 -0.0312363)
(-0.00802516 0.00838918 -0.0325679)
(-0.00644198 0.0080684 -0.0311185)
(-0.00479929 0.00797652 -0.0285604)
(-0.00401411 0.00730979 -0.0228725)
(-0.00352895 0.00919106 -0.0252646)
(-0.00125235 0.00400033 -0.0175389)
(-0.0030779 0.00534789 -0.0234949)
(-0.00448634 0.00531931 -0.0255754)
(-0.00871037 0.00650133 -0.0278637)
(-0.0108111 0.00688884 -0.0306785)
(-0.0122506 0.00856667 -0.031205)
(-0.011806 0.0101604 -0.0287967)
(-0.0303455 0.02408 -0.0679259)
(-0.0380553 0.0289946 -0.0786496)
(-0.0179164 0.0115224 -0.036759)
(-0.0117968 0.0096252 -0.0294509)
(-0.0137571 0.0098173 -0.0397473)
(-0.0101646 0.00799948 -0.0298406)
(-0.00532532 0.00558639 -0.02235)
(-0.00717455 0.0074634 -0.0288442)
(-0.00701466 0.00887343 -0.0304689)
(-0.00579477 0.0100414 -0.0308534)
(-0.00405621 0.0105199 -0.0300719)
(-0.00524196 0.0111296 -0.0243624)
(-0.00421225 0.0142284 -0.0311367)
(-0.00300319 0.00734847 -0.0217578)
(-0.00476968 0.00804063 -0.0263426)
(-0.00657153 0.00781495 -0.0292678)
(-0.00796878 0.00739797 -0.0304162)
(-0.00896429 0.00725948 -0.0299846)
(-0.00873829 0.0075469 -0.0268918)
(-0.0248994 0.0210065 -0.0654454)
(-0.0294405 0.0284557 -0.0749895)
(-0.0127592 0.0116607 -0.0331699)
(-0.00745057 0.0107613 -0.0275112)
(-0.0101342 0.0141698 -0.037292)
(-0.0107582 0.0176879 -0.0420165)
(-0.00926193 0.0192936 -0.0426387)
(-0.00900354 0.0246009 -0.0448847)
(-0.00930435 0.0261606 -0.0418823)
(-0.00751196 0.0255726 -0.0404026)
(-0.00924848 0.0222296 -0.0313452)
(-0.00720949 0.0251757 -0.037333)
(-0.00247683 0.0170761 -0.0294983)
(-0.00537374 0.0223436 -0.0370476)
(-0.00377738 0.0155156 -0.0299288)
(-0.00343127 0.0186764 -0.0350791)
(-0.00117762 0.0101983 -0.0236203)
(-0.00370021 0.0132892 -0.0309162)
(-0.00308613 0.0160587 -0.0340064)
(-0.00326981 0.0118141 -0.027944)
(-0.00300192 0.00632861 -0.0210621)
(-0.00632975 0.00921197 -0.0294844)
(-0.00862804 0.0108179 -0.0342226)
(-0.0114138 0.014919 -0.0368699)
(-0.012692 0.0142356 -0.0329301)
(-0.0115177 0.00918693 -0.02658)
(-0.0152796 0.0163104 -0.0380855)
(-0.0175994 0.0225523 -0.0416368)
(-0.0159999 0.0204788 -0.0375843)
(-0.0122532 0.0166796 -0.029317)
(-0.0154645 0.0230648 -0.0390287)
(-0.0120946 0.0169322 -0.0274974)
(-0.0103275 0.0176818 -0.0293496)
(-0.0082737 0.0145791 -0.0206726)
(-0.0111 0.0194083 -0.0286033)
(-0.00861165 0.0139319 -0.0185355)
(-0.00675924 0.0133336 -0.017111)
(-0.00448471 0.0121698 -0.0126489)
(-0.00398049 0.0163036 -0.0197062)
(3.3624e-05 0.0154831 -0.0142424)
(-0.000319862 0.0141296 -0.00918723)
(-0.00539184 0.0192619 -0.00935214)
(-0.00796851 0.0342863 -0.0180471)
(-0.0201604 0.052923 -0.0274033)
(-0.0340725 0.0680121 -0.0332214)
(-0.0404033 0.0708406 -0.0350893)
(-0.0393392 0.0643337 -0.0346706)
(-0.0354449 0.0537532 -0.0340772)
(-0.0305614 0.0409899 -0.0314825)
(-0.0241552 0.029111 -0.0263307)
(-0.0276136 0.0284815 -0.0291767)
(-0.018233 0.0177906 -0.0197647)
(-0.00816744 0.00504875 -0.00982245)
(-0.010178 0.0049413 -0.0117481)
(-0.0110351 0.00362766 -0.0110232)
(-0.0115065 0.00329453 -0.0137288)
(-0.012151 0.00349513 -0.0145087)
(-0.0195197 0.00613037 -0.0262769)
(-0.0226897 0.00541771 -0.0240721)
(-0.0198364 0.00699878 -0.0253517)
(-0.0196083 0.00788865 -0.0289072)
(-0.0207771 0.0095781 -0.0261762)
(-0.0190948 0.0102226 -0.0269735)
(-0.0159196 0.0103581 -0.0261709)
(-0.023409 0.0153222 -0.0422807)
(-0.0244542 0.0168726 -0.0371076)
(-0.0205099 0.0151531 -0.0346404)
(-0.0171225 0.0146415 -0.0321616)
(-0.0247456 0.0179147 -0.0481756)
(-0.0242217 0.01832 -0.0422981)
(-0.0209375 0.0152162 -0.0374169)
(-0.0163623 0.0137924 -0.0332074)
(-0.0234437 0.0170992 -0.0476367)
(-0.0224528 0.0162066 -0.0416122)
(-0.0178742 0.0129244 -0.0339248)
(-0.0123516 0.0117559 -0.0294316)
(-0.0162484 0.0146659 -0.0433249)
(-0.0138247 0.0159661 -0.0371187)
(-0.0119418 0.0118431 -0.030467)
(-0.00723631 0.0121718 -0.0255118)
(-0.0105456 0.0170893 -0.0374308)
(-0.0117134 0.0239086 -0.0457389)
(-0.0112727 0.0290032 -0.0535925)
(-0.00720366 0.0251001 -0.0411686)
(-0.00409862 0.0208735 -0.0286626)
(-0.00642176 0.024703 -0.0339103)
(-0.00743094 0.0256139 -0.0354102)
(-0.00812157 0.0230806 -0.0305619)
(-0.0088413 0.0270721 -0.0409835)
(-0.0105839 0.0247738 -0.0313479)
(-0.00943027 0.0278801 -0.0369323)
(-0.00863472 0.0276614 -0.0373506)
(-0.00708062 0.0265283 -0.0361799)
(-0.0185974 0.04798 -0.0795979)
(-0.0206186 0.0593003 -0.0891985)
(-0.00885104 0.0311491 -0.0442283)
(-0.00475929 0.0281405 -0.0331071)
(-0.00751488 0.0341971 -0.0415806)
(-0.00928011 0.0378575 -0.0451991)
(-0.0094915 0.0369532 -0.0426172)
(-0.00782771 0.0343855 -0.0394128)
(-0.00827028 0.0297755 -0.0300798)
(-0.00579964 0.0326253 -0.0409711)
(-0.010147 0.026555 -0.0310152)
(-0.0102699 0.0332792 -0.0424992)
(-0.00928968 0.0307198 -0.0447826)
(-0.00952266 0.0255763 -0.0328918)
(-0.00795747 0.0275921 -0.0369148)
(-0.00532752 0.0210713 -0.029051)
(-0.00786501 0.0300214 -0.041836)
(-0.00738457 0.0369793 -0.0497707)
(-0.00710389 0.0297999 -0.0452622)
(-0.00424193 0.0214848 -0.0374114)
(-0.00304844 0.0237766 -0.0361289)
(-0.00255389 0.0217217 -0.0347626)
(-0.00126009 0.012171 -0.0249097)
(-0.00214495 0.0113515 -0.0208731)
(-0.00335516 0.0155638 -0.0283979)
(-0.00430173 0.011504 -0.024918)
(-0.00421088 0.00750227 -0.0195587)
(-0.00673869 0.0118206 -0.0282101)
(-0.00753058 0.00975457 -0.022497)
(-0.0135561 0.0159276 -0.0345307)
(-0.0150429 0.0161413 -0.0325924)
(-0.0132877 0.01282 -0.027857)
(-0.0120447 0.0134042 -0.02418)
(-0.0177125 0.0233177 -0.0370626)
(-0.0175033 0.0223674 -0.0369504)
(-0.0130793 0.0192864 -0.0308552)
(-0.0149556 0.0200379 -0.0266961)
(-0.0127002 0.0189659 -0.0269063)
(-0.0103012 0.0153579 -0.0190473)
(-0.0105665 0.0144923 -0.0134047)
(-0.00779506 0.0124005 -0.0116122)
(-0.00450857 0.0112012 -0.00865511)
(-0.00461079 0.00798725 -0.00391803)
(-0.00139419 0.0160153 -0.00480593)
(-0.00540006 0.0200709 0.00460322)
(-0.0171171 0.029331 0.0283207)
(-0.00241918 0.0065822 -0.00202558)
(-0.00405651 0.00708433 -0.0037535)
(-0.00517555 0.00644491 -0.00588945)
(-0.0068786 0.00672268 -0.00793382)
(-0.00712313 0.00640291 -0.00760653)
(-0.00665899 0.00506556 -0.00598869)
(-0.00768635 0.00352552 -0.00786015)
(-0.00610944 0.00226084 -0.00549976)
(-0.0108173 0.00185838 -0.00916598)
(-0.0114949 0.00201672 -0.0112125)
(-0.0130761 0.00239043 -0.0126597)
(-0.0139398 0.00268724 -0.0120273)
(-0.0171365 0.00494752 -0.015543)
(-0.021703 0.00487726 -0.0185131)
(-0.0200558 0.00743974 -0.0202018)
(-0.0153525 0.00601291 -0.0146519)
(-0.0170446 0.00946218 -0.0195078)
(-0.0169867 0.0096532 -0.0208533)
(-0.0149211 0.00996583 -0.0214145)
(-0.0166292 0.0139513 -0.0221526)
(-0.0165946 0.0153078 -0.0239243)
(-0.0181047 0.0141182 -0.0269073)
(-0.0178294 0.0126712 -0.0275796)
(-0.0155884 0.013312 -0.0262185)
(-0.0156765 0.0172809 -0.0272299)
(-0.016601 0.0163571 -0.0285329)
(-0.017812 0.0136398 -0.0304727)
(-0.0180221 0.0107251 -0.028756)
(-0.0145749 0.0113745 -0.0268874)
(-0.0153859 0.014035 -0.0282747)
(-0.016195 0.0146976 -0.0294279)
(-0.0143113 0.012228 -0.0291673)
(-0.0140191 0.0103206 -0.0255169)
(-0.00912389 0.0116843 -0.0233426)
(-0.0105004 0.0147089 -0.0252763)
(-0.00996074 0.0132926 -0.0249653)
(-0.00828761 0.0132179 -0.0256475)
(-0.0123558 0.0177533 -0.0381302)
(-0.0106571 0.0170889 -0.0358281)
(-0.00777162 0.0165043 -0.0307196)
(-0.0105701 0.0246769 -0.0415914)
(-0.0120429 0.0348435 -0.0561931)
(-0.00834431 0.0318176 -0.0490169)
(-0.00835927 0.0290912 -0.042979)
(-0.00464234 0.0269783 -0.0302853)
(-0.00754099 0.0356712 -0.0410922)
(-0.00919295 0.0447652 -0.049701)
(-0.0106236 0.0501612 -0.053169)
(-0.0120376 0.0526077 -0.0509773)
(-0.013504 0.0471146 -0.0447973)
(-0.0145903 0.0376329 -0.0333552)
(-0.011731 0.0414171 -0.042527)
(-0.0123833 0.0382015 -0.0373795)
(-0.00935458 0.0317921 -0.0373726)
(-0.00957878 0.0348012 -0.0413412)
(-0.00635398 0.0269873 -0.0357198)
(-0.00780839 0.0302547 -0.0382103)
(-0.00766068 0.0318744 -0.0409857)
(-0.00522126 0.025314 -0.0341305)
(-0.00402256 0.0230345 -0.0294286)
(-0.00506317 0.0365975 -0.0443338)
(-0.00579259 0.0303881 -0.0419677)
(-0.00403634 0.0251418 -0.0302454)
(-0.00271371 0.020581 -0.0274778)
(-0.00197885 0.019666 -0.0270682)
(-0.00248051 0.0150729 -0.0217762)
(-0.00581276 0.0156339 -0.0252594)
(-0.00422532 0.0111755 -0.0188529)
(-0.00778926 0.0157603 -0.0266508)
(-0.00615835 0.0114396 -0.0237582)
(-0.00958958 0.0134794 -0.0277997)
(-0.00645559 0.00856455 -0.0184264)
(-0.00709415 0.00833015 -0.0171383)
(-0.0113566 0.0143979 -0.0260921)
(-0.0128055 0.0150019 -0.0266741)
(-0.0160465 0.0139471 -0.0259195)
(-0.0191574 0.0200909 -0.0329592)
(-0.0150447 0.0186475 -0.0269958)
(-0.0172638 0.0204845 -0.0306556)
(-0.0132399 0.0134781 -0.0213048)
(-0.012049 0.0161359 -0.0195295)
(-0.0130685 0.0160098 -0.0205938)
(-0.0167368 0.0129442 -0.0150792)
(-0.0183794 0.0142096 -0.0163082)
(-0.00662222 0.00765516 -0.00638206)
(-0.00492381 0.00315003 -0.00244052)
(-0.0050514 0.00439476 -0.00107585)
(-0.00457276 0.00319419 -0.00117848)
(-0.00573653 0.00973261 0.00272532)
(-0.00602625 0.02638 0.0159308)
(6.93484e-05 0.00640735 -0.000615685)
(-0.000970805 0.00681527 -0.00117798)
(0.000346031 0.00777385 -0.00136246)
(-0.000609957 0.00730011 -0.00204025)
(-0.00243941 0.00749732 -0.00363329)
(-0.00439543 0.00628677 -0.00531365)
(-0.00246851 0.00526015 -0.00310212)
(-0.00248339 0.00660786 -0.0043306)
(-0.00391756 0.00624528 -0.00567686)
(-0.000207925 0.004651 -0.0016749)
(-0.00700046 0.00331854 -0.00600896)
(-0.00951658 0.00364871 -0.00919823)
(-0.0182797 0.00240847 -0.0115133)
(-0.0119813 0.00112618 -0.0087293)
(-0.0230606 0.00449721 -0.0176792)
(-0.0268306 0.00768683 -0.0221624)
(-0.0236505 0.00841747 -0.0200572)
(-0.0269638 0.0102292 -0.0201399)
(-0.0397494 0.021539 -0.0357456)
(-0.0332828 0.0214159 -0.0351014)
(-0.0260044 0.0192299 -0.0310783)
(-0.0258205 0.0217535 -0.0335556)
(-0.0188227 0.0198941 -0.0324539)
(-0.0133679 0.0178272 -0.026821)
(-0.0171296 0.0155824 -0.02681)
(-0.0133936 0.0156905 -0.0246785)
(-0.0200274 0.0223583 -0.0392914)
(-0.0162407 0.0190897 -0.0358788)
(-0.0121729 0.0159699 -0.0286543)
(-0.0169187 0.013283 -0.0290117)
(-0.0131017 0.0134525 -0.0273388)
(-0.0192036 0.0220114 -0.0424188)
(-0.0145256 0.0192237 -0.0359401)
(-0.00908351 0.015736 -0.0265306)
(-0.0104909 0.0139835 -0.025416)
(-0.00911715 0.0129656 -0.0243778)
(-0.0110219 0.0205892 -0.0390131)
(-0.00764821 0.0172977 -0.0339949)
(-0.00534194 0.013158 -0.0251166)
(-0.00553047 0.0136472 -0.0267077)
(-0.0104408 0.0179803 -0.0374588)
(-0.0102436 0.0195931 -0.0377001)
(-0.0059052 0.0200367 -0.0329721)
(-0.00519715 0.0253082 -0.0370947)
(-0.00683847 0.0230087 -0.0389729)
(-0.00350077 0.0247839 -0.0358977)
(-0.00749257 0.0361696 -0.0470685)
(-0.00735159 0.0343592 -0.0420413)
(-0.00495804 0.0300216 -0.0342429)
(-0.00779518 0.0432047 -0.048008)
(-0.0114171 0.0559424 -0.0578867)
(-0.0147116 0.0586851 -0.0543982)
(-0.0185606 0.0613186 -0.0546399)
(-0.0218852 0.0560979 -0.048468)
(-0.0188395 0.0458851 -0.0417951)
(-0.0157897 0.0313846 -0.0267707)
(-0.0146783 0.0333837 -0.0313822)
(-0.010552 0.0270047 -0.0278465)
(-0.0175135 0.0441583 -0.041992)
(-0.0140723 0.0377084 -0.0390675)
(-0.0122978 0.0398264 -0.0425495)
(-0.00753661 0.0331517 -0.0392293)
(-0.00836865 0.0355093 -0.0402696)
(-0.00913751 0.0381716 -0.044204)
(-0.00556569 0.0321689 -0.0340656)
(-0.00535322 0.0274928 -0.0313786)
(-0.0042762 0.0290247 -0.0336988)
(-0.0046186 0.0257915 -0.0300545)
(-0.00721894 0.0292598 -0.0363619)
(-0.00348688 0.0267393 -0.0291693)
(-0.00580417 0.0249038 -0.0275813)
(-0.0100676 0.0334671 -0.0379108)
(-0.00435822 0.0202756 -0.025589)
(-0.00711965 0.0197939 -0.0277674)
(-0.00341822 0.0191388 -0.0227304)
(-0.00685042 0.0165729 -0.0219431)
(-0.01041 0.0183915 -0.0292151)
(-0.00509589 0.0130428 -0.019688)
(-0.0113786 0.0149314 -0.0272957)
(-0.0114162 0.0147353 -0.0287111)
(-0.0101855 0.0110781 -0.0239102)
(-0.00803511 0.0095594 -0.0177202)
(-0.0151892 0.0126072 -0.0265614)
(-0.0160823 0.0155608 -0.0297857)
(-0.0139737 0.0168048 -0.0266551)
(-0.0147257 0.0107258 -0.0241676)
(-0.0164816 0.0123325 -0.0259284)
(-0.0161914 0.0155383 -0.0248456)
(-0.0202529 0.0151581 -0.0273971)
(-0.0219385 0.0202008 -0.0330563)
(-0.0207903 0.0160206 -0.027132)
(-0.0171046 0.0126526 -0.0198108)
(-0.0186083 0.01393 -0.0223445)
(-0.0151128 0.0161504 -0.0161186)
(-0.0200134 0.0109996 -0.0168315)
(-0.0187608 0.00666755 -0.0163144)
(-0.0121786 0.00349148 -0.00791856)
(-0.0119586 0.000178973 -0.00570343)
(-0.00999409 -0.00269071 -0.00475025)
(-0.0029587 0.00453362 0.000173555)
(-0.00409305 0.0111347 0.00171265)
(-0.00996106 0.0280163 0.0198715)
(0.0027176 0.0126492 -0.00185703)
(0.00135641 0.00991402 -0.00106521)
(0.00322758 0.0109325 -0.00251849)
(0.0013165 0.00688266 -0.000836946)
(0.00264031 0.0119337 -0.00206504)
(0.00496643 0.0144382 -0.00306588)
(0.00168549 0.00783745 -0.00120931)
(-0.000627922 0.00725341 -0.00272767)
(0.00289352 0.0111618 -0.00245534)
(0.00453607 0.0124744 -0.00174273)
(0.00197432 0.0103671 -0.00342902)
(0.0051423 0.0088373 -0.00119105)
(0.00946569 0.0160683 -0.00114764)
(0.0111143 0.0157808 0.00246099)
(0.00926662 0.0114461 -0.000340032)
(0.00805915 0.0133279 -0.00191349)
(-0.00386518 0.00697587 -0.00457792)
(-0.0226442 0.00461233 -0.0115419)
(-0.00298124 0.00601426 -0.00706643)
(-0.0172226 0.00715067 -0.0187744)
(-0.0352593 0.0161514 -0.0350762)
(-0.0355025 0.0158909 -0.0396129)
(-0.041674 0.0215212 -0.0407511)
(-0.0339561 0.0209473 -0.0318068)
(-0.0411982 0.0321105 -0.0441397)
(-0.0245674 0.0221934 -0.0411652)
(-0.0253726 0.0215345 -0.0338018)
(-0.019199 0.0189651 -0.0338809)
(-0.0175895 0.0154105 -0.028437)
(-0.0194544 0.0206363 -0.0393122)
(-0.0134843 0.015745 -0.0336662)
(-0.0153946 0.0193618 -0.0376145)
(-0.0147294 0.0146183 -0.0330681)
(-0.0172461 0.0188787 -0.0446684)
(-0.0135797 0.0138613 -0.0361689)
(-0.0156071 0.0185697 -0.0398164)
(-0.0129308 0.0140871 -0.0322971)
(-0.012867 0.0181145 -0.0426306)
(-0.00845139 0.0131462 -0.0332714)
(-0.00825867 0.0173134 -0.0366915)
(-0.00783062 0.0128237 -0.0329236)
(-0.0101103 0.0178214 -0.0477892)
(-0.00923794 0.0141588 -0.0409046)
(-0.00953529 0.0186396 -0.0434182)
(-0.00559265 0.0187549 -0.0366621)
(-0.00514166 0.020104 -0.0349866)
(-0.00498337 0.0186008 -0.0336752)
(-0.00732338 0.0315288 -0.0501513)
(-0.00668607 0.0287011 -0.0435614)
(-0.00286239 0.0243841 -0.0328933)
(-0.00243239 0.0266263 -0.0325719)
(-0.00600967 0.034881 -0.0422131)
(-0.00630446 0.0379827 -0.0453481)
(-0.00521023 0.0390118 -0.0416221)
(-0.0106568 0.0530675 -0.0537599)
(-0.0154654 0.0611816 -0.0588621)
(-0.0109063 0.045995 -0.0443696)
(-0.00760271 0.0351258 -0.0289863)
(-0.0118302 0.0390588 -0.0305538)
(-0.0139363 0.0364321 -0.0278716)
(-0.0142479 0.0291145 -0.0208822)
(-0.0149598 0.0322963 -0.0262946)
(-0.0157437 0.0310824 -0.0222329)
(-0.0167683 0.0410148 -0.0310247)
(-0.01691 0.0483223 -0.036907)
(-0.0126058 0.0512096 -0.0389733)
(-0.02535 0.0897959 -0.0844041)
(-0.0286916 0.0953313 -0.0912813)
(-0.0125521 0.0457276 -0.0436666)
(-0.0100617 0.0388381 -0.0323705)
(-0.0149812 0.0424007 -0.0314249)
(-0.0192049 0.0460356 -0.0300192)
(-0.0212656 0.0421231 -0.0273922)
(-0.0180116 0.0317797 -0.0206795)
(-0.016603 0.0326036 -0.0243631)
(-0.018137 0.0311978 -0.0238036)
(-0.017465 0.0299328 -0.0247789)
(-0.0163632 0.031781 -0.0253667)
(-0.0112912 0.0262465 -0.029446)
(-0.0156067 0.0337027 -0.0353066)
(-0.0169731 0.043236 -0.0418583)
(-0.0133582 0.0366436 -0.0405092)
(-0.0100158 0.0377008 -0.0395864)
(-0.00900191 0.0426296 -0.0433729)
(-0.00461093 0.032852 -0.0309854)
(-0.00607559 0.0291937 -0.030659)
(-0.00548651 0.0305823 -0.0292892)
(-0.00972454 0.0433403 -0.0421659)
(-0.00617263 0.0272125 -0.0296091)
(-0.00721093 0.0297395 -0.0319904)
(-0.00353494 0.0305928 -0.0297799)
(-0.00594596 0.0265941 -0.0267281)
(-0.00985069 0.0358735 -0.0371161)
(-0.0146751 0.0420398 -0.0466691)
(-0.0134942 0.0326537 -0.0410437)
(-0.0106968 0.0281667 -0.0363294)
(-0.00915477 0.0219428 -0.0278984)
(-0.013889 0.0222576 -0.0374908)
(-0.0118333 0.0170329 -0.0297864)
(-0.0107336 0.0144074 -0.0262841)
(-0.00896203 0.0149311 -0.0236802)
(-0.00726715 0.0117518 -0.0201836)
(-0.0125382 0.012651 -0.0297782)
(-0.0115616 0.0115382 -0.0260821)
(-0.011786 0.0104639 -0.0244829)
(-0.0112925 0.0136199 -0.0236336)
(-0.00865164 0.00945446 -0.0198972)
(-0.0160587 0.012213 -0.0306585)
(-0.0151921 0.0124609 -0.0278164)
(-0.0117893 0.00972754 -0.0222268)
(-0.0134767 0.0116127 -0.0216247)
(-0.0216081 0.0159028 -0.0321198)
(-0.0204025 0.0148376 -0.029968)
(-0.022597 0.0155611 -0.0293585)
(-0.020704 0.0119999 -0.0243653)
(-0.0196665 0.00529607 -0.0239332)
(-0.0182628 0.000992716 -0.0172667)
(-0.0158473 0.0010418 -0.0114195)
(-0.0111587 -0.00579232 -0.00994361)
(-0.00358111 -0.00216611 -0.00419849)
(0.00447587 0.00367158 0.000809321)
(4.97697e-05 0.00712292 0.00426422)
(0.00123907 0.018336 0.00680576)
(0.00764503 0.0214075 -0.00277758)
(0.00571827 0.0154891 -0.00287061)
(0.00629737 0.0169496 -0.00340886)
(0.00490903 0.0150962 -0.00318206)
(0.00669487 0.0147517 -0.00243081)
(0.00451208 0.0109622 -0.00175058)
(0.006616 0.0137108 -0.00203461)
(0.00809516 0.019365 -0.00251792)
(0.012574 0.0230466 -0.00285782)
(0.00759618 0.0143219 -0.000885584)
(0.00867361 0.0146802 -0.00105742)
(0.0101228 0.022559 -0.00226535)
(0.0141333 0.0253235 -0.00131214)
(0.00733802 0.0122656 0.000901827)
(0.0117195 0.0303026 -0.00357219)
(0.0216534 0.0536274 -0.00530715)
(0.0260885 0.0546777 -0.00159066)
(0.0131491 0.0235674 -8.41289e-05)
(0.0183555 0.0215875 0.0034298)
(0.0170253 0.037002 -0.00205301)
(0.0163149 0.0366951 -0.00221547)
(0.021275 0.0311728 0.00325778)
(0.0308141 0.0420624 0.00479207)
(0.0158889 0.0231933 0.00604001)
(0.0138621 0.0155759 -0.00143135)
(0.00604494 0.0144445 -0.00839098)
(-0.0149653 0.0118133 -0.01891)
(0.0199491 0.0272633 -0.000171187)
(0.00959558 0.0150428 -0.00874671)
(0.0017521 0.00652028 -0.0317311)
(-0.01307 0.0083062 -0.0419942)
(-0.0194883 0.00252465 -0.0351785)
(-0.0171189 0.00603777 -0.0275336)
(-0.0230095 0.00204812 -0.038127)
(-0.0199839 0.00534788 -0.0258805)
(-0.027513 0.0149195 -0.0385416)
(-0.0181815 0.0130105 -0.0269059)
(-0.0244698 0.0167798 -0.034393)
(-0.04134 0.0207512 -0.0443933)
(-0.0466895 0.0160761 -0.0465968)
(-0.0323759 0.0195281 -0.040319)
(-0.0305536 0.0243003 -0.044119)
(-0.0247417 0.0203314 -0.0396478)
(-0.018896 0.0179137 -0.0309756)
(-0.0206758 0.0156047 -0.036419)
(-0.0203581 0.0185508 -0.0295684)
(-0.019551 0.011875 -0.0247552)
(-0.0438437 0.0288349 -0.0552583)
(-0.0559976 0.0326356 -0.0718969)
(-0.0663998 0.0377667 -0.0803134)
(-0.066519 0.049271 -0.0771067)
(-0.0622355 0.0558583 -0.0684229)
(-0.054772 0.0502253 -0.0582277)
(-0.0436781 0.0404755 -0.0444025)
(-0.0272693 0.0306705 -0.0310124)
(-0.010404 0.0219485 -0.0165161)
(0.0177112 0.0517599 -0.0124767)
(0.0206865 0.0431 -0.00535073)
(0.0173726 0.0278474 -0.000313823)
(0.0146058 0.0228321 0.00137854)
(0.0206295 0.0363203 -0.00156662)
(0.0330648 0.0707193 -0.00512489)
(0.0313791 0.0742382 -0.00120394)
(0.0190298 0.0545049 -0.0028088)
(0.0153055 0.0496102 -0.00604594)
(0.0175125 0.0375564 -0.000289972)
(0.0268418 0.0534587 -0.000250507)
(0.0363606 0.0619282 0.000710722)
(0.0383731 0.0610668 0.00131047)
(0.0360818 0.049022 -0.00588917)
(0.0330279 0.0628503 -0.00375427)
(0.0364257 0.0660352 0.0052289)
(0.0347944 0.0258861 -0.00747862)
(0.00920595 0.00172557 -0.00614269)
(-0.00202058 -0.00639587 -0.0143394)
(-0.00924623 -0.00882654 -0.0123019)
(-0.0112857 -0.00566278 -0.0147204)
(-0.00517643 -0.00408832 -0.00618808)
(-0.00069401 -0.00687754 -0.00196245)
(0.00524754 -0.00161545 -0.00286641)
(0.0143578 0.0100249 0.00221825)
(0.00687691 0.0119184 0.0027813)
(0.00830529 0.0145277 0.0033855)
(0.000218387 0.028313 0.00831862)
(-0.00161771 0.0315919 0.0106915)
(0.00526025 0.020082 -0.00471023)
(0.00822052 0.0273276 -0.00532752)
(0.0101329 0.0279069 -0.00510146)
(0.00882179 0.0212269 -0.00222563)
(0.00595487 0.0148638 -0.0013367)
(0.00740277 0.0163471 -0.00231641)
(0.0106933 0.0263764 -0.00254054)
(0.0155509 0.0361297 -0.00467061)
(0.0157665 0.0322123 -0.00398076)
(0.0165878 0.0328914 -0.00326611)
(0.0127109 0.0241413 -0.00238377)
(0.0167185 0.0261699 -0.00128319)
(0.0151896 0.024423 0.000722019)
(0.0131936 0.0348195 -0.00235842)
(0.0142043 0.0392262 -0.00523223)
(0.0195051 0.0401517 -0.000636736)
(0.0101558 0.0339443 -0.00434609)
(0.0178277 0.0537415 -0.00468273)
(0.00857079 0.0433241 -0.0104709)
(0.0122577 0.0616392 -0.0115846)
(0.0118199 0.0524001 -0.0131513)
(0.012136 0.0403915 -0.0049709)
(0.014366 0.0466206 -0.00595476)
(0.0174506 0.0488334 -0.0050616)
(0.0189688 0.0684092 -0.00920582)
(0.0300026 0.0918998 -0.00351947)
(0.0253229 0.0786794 -0.0156639)
(0.014928 0.0488592 -0.00798411)
(0.00952096 0.0449455 -0.00672132)
(0.0260416 0.0568139 -0.00368648)
(0.0477997 0.04948 -0.00684533)
(0.0280527 0.0260414 0.00107641)
(0.013017 0.00292356 -0.000139382)
(0.0220313 0.0184196 0.00109884)
(0.018864 0.0257445 -0.000128361)
(0.015424 0.0168898 0.00212716)
(0.00991403 0.0165972 0.0012241)
(0.00611796 0.0145952 0.003327)
(0.00186497 0.0110912 0.00276307)
(-0.00482886 0.028207 0.0125572)
(0.00742906 0.0503119 -0.00885612)
(0.0052751 0.0216568 -0.00561173)
(0.00644969 0.0224545 -0.00654706)
(0.00627062 0.0208102 -0.00481114)
(0.00697606 0.0213981 -0.00498448)
(0.0103158 0.0295595 -0.0052956)
(0.0128552 0.0344042 -0.0046424)
(0.0146487 0.0370636 -0.00538131)
(0.0165739 0.0376864 -0.00453381)
(0.0142448 0.0376457 -0.00442679)
(0.0134357 0.0315374 -0.0032025)
(0.0101158 0.0231382 -0.00128662)
(0.0240775 0.0573975 -0.0020139)
(0.0290422 0.0733758 -0.00512157)
(0.0258935 0.0721488 -0.0061439)
(0.00956325 0.0302081 -0.00388829)
(0.0140629 0.0357051 -0.0026356)
(0.00694263 0.0289627 -0.00359302)
(0.00835956 0.0331145 -0.00590186)
(0.0101598 0.0441538 -0.00576199)
(0.00734353 0.0442652 -0.0129851)
(0.00486428 0.0370686 -0.0137846)
(0.00390282 0.0353466 -0.0131187)
(0.00589106 0.049398 -0.0186535)
(0.00657975 0.0579504 -0.0204906)
(0.00859722 0.0633833 -0.0208502)
(0.00922846 0.0603242 -0.0176271)
(0.011149 0.0508362 -0.0164147)
(0.00578576 0.0323563 -0.0101948)
(0.00646255 0.0359048 -0.011497)
(0.00278804 0.0323761 -0.00904682)
(-0.000346586 0.0297526 -0.00669295)
(0.00230497 0.0337999 -0.0055401)
(0.00843074 0.0345364 -0.00244207)
(0.0163871 0.027591 -0.000325149)
(0.0158702 0.0349735 -0.00107437)
(0.0107907 0.034433 2.82959e-05)
(0.0115104 0.0249472 0.000847575)
(0.00564003 0.0195683 0.00163067)
(0.00414924 0.0126437 0.00130448)
(0.00260274 0.0159719 0.00116337)
(-0.00149653 0.0137409 0.00214635)
(-0.0102999 0.029658 0.0106859)
(0.00361258 0.0214378 -0.00694105)
(0.0048676 0.0219584 -0.00810813)
(0.00574628 0.0226234 -0.00902336)
(0.00717454 0.0232766 -0.00727393)
(0.00699496 0.023108 -0.00844614)
(0.00743833 0.0219258 -0.00538145)
(0.0122009 0.0316155 -0.00575494)
(0.0111923 0.0322607 -0.00614727)
(0.0132466 0.0379444 -0.00544235)
(0.0112475 0.0367521 -0.00554242)
(0.011527 0.0363344 -0.00446663)
(0.00654602 0.0335607 -0.00558952)
(0.00493806 0.0254049 -0.00343811)
(0.00773988 0.0355715 -0.00599467)
(0.00505735 0.039339 -0.011494)
(0.00773466 0.0431115 -0.00844157)
(0.00462085 0.0374886 -0.00993179)
(0.0019128 0.0284804 -0.0088386)
(0.00220139 0.0285286 -0.0105842)
(0.000439993 0.0265327 -0.0103919)
(0.00286176 0.0377354 -0.0156303)
(0.00350506 0.0471228 -0.0217478)
(0.00461713 0.0511516 -0.0248645)
(0.00543289 0.0500639 -0.0239113)
(0.00571353 0.0421053 -0.020018)
(0.00356873 0.030894 -0.0138733)
(0.00193145 0.0194253 -0.00687908)
(-0.000142044 0.0210719 -0.00413996)
(0.00229453 0.0264505 -0.00866409)
(0.00541656 0.0567913 -0.0164195)
(0.0132117 0.0890516 -0.028838)
(0.0210122 0.118414 -0.0359599)
(0.022983 0.133729 -0.0366225)
(0.0225218 0.134203 -0.0356627)
(0.01942 0.122681 -0.0323809)
(0.014895 0.100264 -0.0280386)
(0.00955939 0.0747514 -0.0205411)
(0.00352861 0.0350382 -0.0120153)
(0.00168922 0.0319624 -0.0150233)
(-0.000539064 0.0266227 -0.0134678)
(0.00210698 0.0363487 -0.0194706)
(0.00323346 0.0431498 -0.0248541)
(0.00402274 0.0443498 -0.0266917)
(0.00386694 0.0397092 -0.0231647)
(0.00255101 0.0319798 -0.0164386)
(0.000492708 0.0223114 -0.00844195)
(-0.000280332 0.0243564 -0.00713175)
(-0.00170592 0.0242212 -0.00620829)
(-0.00323235 0.0211104 -0.0037126)
(-0.00152284 0.0285758 -0.00674151)
(0.000495957 0.0333395 -0.00946056)
(-0.00172266 0.0273278 -0.00651495)
(-0.00256215 0.0213539 -0.00379422)
(-0.00164416 0.0286546 -0.00696988)
(-0.00150196 0.040942 -0.00949596)
(0.00216561 0.0445273 -0.00795589)
(0.00885804 0.0434429 -0.00406911)
(0.00725216 0.0424853 -0.00415458)
(0.00239697 0.0330407 -0.0043279)
(0.00577115 0.0267295 4.28933e-05)
(0.00503747 0.0319593 -0.000436165)
(0.00455509 0.0237315 0.00107441)
(0.00123139 0.0266991 -0.000335692)
(-0.000456846 0.0195612 0.000349874)
(-0.00343255 0.0176752 0.000899329)
(-0.00879516 0.0326448 0.00955465)
(-0.00966298 0.0271351 0.000693702)
(0.00135909 0.0279687 -0.00859798)
(0.00213318 0.0196243 -0.0063324)