/*--------------------------------*- C++ -*----------------------------------*\
| =========                 |                                                 |
| \\      /  F ield         | OpenFOAM: The Open Source CFD Toolbox           |
|  \\    /   O peration     | Version:  5.0                                   |
|   \\  /    A nd           | Web:      www.OpenFOAM.org                      |
|    \\/     M anipulation  |                                                 |
\*---------------------------------------------------------------------------*/
FoamFile
{
    version     2.0;
    format      ascii;
    class       volVectorField;
    location    "60";
    object      URest;
}
// * * * * * * * * * * * * * * * * * * * * * * * * * * * * * * * * * * * * * //

dimensions      [0 1 -1 0 0 0 0];

internalField   nonuniform List<vector> 
36177
(
(-0.0014834 0.00199613 -0.00180764)
(-0.00107152 0.00164662 -0.00170623)
(-0.0013445 0.00204118 -0.00235288)
(-0.00146798 0.00235335 -0.00254276)
(-0.00142475 0.0024761 -0.00256024)
(-0.00117951 0.00216341 -0.00192767)
(-0.00155495 0.00293254 -0.0021579)
(-0.00201762 0.00327602 -0.00171813)
(-0.00202231 0.00333136 -0.00232575)
(-0.00197305 0.00291043 -0.00221454)
(-0.00182486 0.0025438 -0.00216348)
(-0.00417164 0.00636043 -0.00492405)
(-0.00350109 0.0050516 -0.00396188)
(-0.00138908 0.00185879 -0.00215128)
(-0.00143787 0.00173677 -0.00184512)
(-0.00119885 0.00131482 -0.00171966)
(-0.00179607 0.0018386 -0.00270031)
(-0.00221222 0.00262994 -0.00354471)
(-0.00254422 0.00330897 -0.00422512)
(-0.00259754 0.00358937 -0.00437807)
(-0.00214579 0.00324859 -0.00369631)
(-0.0014979 0.0026516 -0.00262286)
(-0.0013367 0.00287844 -0.00281432)
(-0.0018693 0.0033347 -0.00235592)
(-0.00205178 0.00407813 -0.00158686)
(-0.00202678 0.00426925 -0.00121266)
(-0.00293716 0.00614067 -0.000455461)
(-0.00182508 0.00893877 0.00300673)
(-0.00282207 0.00497747 0.000468145)
(-0.00167175 0.00375591 0.00163469)
(-0.00241053 0.0072426 0.00708212)
(-0.000904976 0.00201712 -0.000812677)
(-0.000981027 0.00191138 -0.00105644)
(-0.00110585 0.00181865 -0.0014553)
(-0.00101079 0.00157242 -0.00118632)
(-0.00178574 0.00244217 -0.00201869)
(-0.00410406 0.00699552 -0.00365548)
(-0.00280404 0.00514051 -0.00254786)
(-0.00123211 0.00218711 -0.00126162)
(-0.00331609 0.00542702 -0.00333749)
(-0.00131069 0.00192325 -0.0016225)
(-0.00137648 0.00170317 -0.0017087)
(-0.00140641 0.00150349 -0.00199266)
(-0.00173468 0.001439 -0.00226823)
(-0.00157285 0.00135434 -0.00216356)
(-0.00242737 0.00195705 -0.00386254)
(-0.00197582 0.00177457 -0.00362416)
(-0.00142801 0.00131535 -0.00292137)
(-0.00202954 0.00213116 -0.00403782)
(-0.00236659 0.00274503 -0.00458855)
(-0.00242559 0.00313964 -0.00480475)
(-0.00246034 0.00316657 -0.00462004)
(-0.00247621 0.00280338 -0.00368692)
(-0.00221777 0.00298772 -0.00436812)
(-0.0015535 0.00225892 -0.00278255)
(-0.00184088 0.00274663 -0.0036212)
(-0.00212584 0.00294478 -0.00436713)
(-0.00235508 0.00285098 -0.00467152)
(-0.00218197 0.00245866 -0.0044101)
(-0.00182402 0.00193628 -0.00337072)
(-0.00468299 0.00447025 -0.00748339)
(-0.00604453 0.00490386 -0.00919577)
(-0.00266876 0.00194226 -0.00421084)
(-0.00229119 0.00186255 -0.00411933)
(-0.00212918 0.00182589 -0.00402635)
(-0.00153957 0.0014357 -0.00316799)
(-0.00200242 0.0019358 -0.00433655)
(-0.0023356 0.00286533 -0.00495128)
(-0.00272631 0.00346538 -0.00555809)
(-0.00287031 0.00360681 -0.00565533)
(-0.00297985 0.00332821 -0.00496813)
(-0.00282616 0.00360984 -0.0063151)
(-0.00215819 0.00268085 -0.00416552)
(-0.0025487 0.0031563 -0.00485501)
(-0.00259744 0.00325011 -0.00527445)
(-0.00254948 0.00299178 -0.00519707)
(-0.0023599 0.00251761 -0.00471791)
(-0.00198105 0.00192226 -0.00366046)
(-0.00517827 0.00422314 -0.00858338)
(-0.00649591 0.00504384 -0.0101272)
(-0.00285681 0.00209713 -0.0045962)
(-0.00208465 0.00206939 -0.00400302)
(-0.00300395 0.00299338 -0.00628379)
(-0.00240493 0.0027462 -0.00523727)
(-0.00184447 0.00222516 -0.00407707)
(-0.00249323 0.00269725 -0.00528111)
(-0.0030416 0.00356835 -0.00596846)
(-0.00353985 0.00380268 -0.00655114)
(-0.00359585 0.00358384 -0.00652078)
(-0.00328952 0.00297169 -0.00558673)
(-0.00314887 0.00320187 -0.00646656)
(-0.00243686 0.00237746 -0.00477176)
(-0.0026865 0.00331479 -0.00578615)
(-0.00318289 0.00381952 -0.00587123)
(-0.00305331 0.00389072 -0.00609984)
(-0.00279568 0.00362923 -0.00575708)
(-0.00227778 0.00297136 -0.00470619)
(-0.00596599 0.0060082 -0.0111171)
(-0.00739181 0.00729312 -0.013183)
(-0.00322914 0.00328789 -0.00609192)
(-0.0025291 0.00302161 -0.00515212)
(-0.00370997 0.00383276 -0.00764961)
(-0.00288443 0.0030259 -0.00626769)
(-0.00214612 0.0022635 -0.00477556)
(-0.00274262 0.00244007 -0.00598345)
(-0.00318098 0.00297269 -0.00663617)
(-0.00343357 0.00283813 -0.00711441)
(-0.00323039 0.00246827 -0.00679953)
(-0.00271973 0.00207418 -0.00580572)
(-0.00266629 0.00229357 -0.00658347)
(-0.00198487 0.00122742 -0.00470289)
(-0.00263627 0.00208503 -0.00599387)
(-0.00345107 0.00282359 -0.00640627)
(-0.00347021 0.00335182 -0.0067851)
(-0.00331463 0.0035349 -0.00650582)
(-0.00275173 0.0032977 -0.00545697)
(-0.00694858 0.00679799 -0.0132205)
(-0.00822145 0.00787968 -0.0155399)
(-0.00368394 0.0035041 -0.00718829)
(-0.00278664 0.00299796 -0.00592848)
(-0.0039262 0.0035377 -0.00838403)
(-0.00294436 0.00254971 -0.00655888)
(-0.00188494 0.00171147 -0.00475106)
(-0.00224936 0.00168674 -0.00595102)
(-0.00237182 0.00226461 -0.00651755)
(-0.00237962 0.00235242 -0.00702754)
(-0.00225356 0.00234695 -0.00696162)
(-0.00194263 0.00234109 -0.0066027)
(-0.00174286 0.00211463 -0.00538373)
(-0.00159195 0.00240903 -0.00602169)
(-0.0010439 0.00127132 -0.00436443)
(-0.00159058 0.00163434 -0.00576463)
(-0.00184698 0.00168181 -0.00606807)
(-0.00269556 0.00200085 -0.00646445)
(-0.00297351 0.0021536 -0.00675872)
(-0.00310434 0.00240765 -0.00665079)
(-0.00274605 0.00259947 -0.00575108)
(-0.00690926 0.00586119 -0.0140847)
(-0.00792227 0.00693313 -0.016207)
(-0.00363173 0.00294599 -0.0072847)
(-0.00240125 0.00246177 -0.00577033)
(-0.00306607 0.0027097 -0.00815772)
(-0.00221564 0.00221128 -0.00624444)
(-0.00113895 0.00150606 -0.00455189)
(-0.00157272 0.00199413 -0.00602941)
(-0.00156212 0.00239584 -0.00633844)
(-0.00136815 0.00269507 -0.00649773)
(-0.00106186 0.00280726 -0.00635044)
(-0.00120534 0.00283762 -0.00515195)
(-0.00121134 0.00356608 -0.00659814)
(-0.00109113 0.00217733 -0.00494676)
(-0.00163043 0.0024549 -0.00610721)
(-0.00198392 0.00254295 -0.00672162)
(-0.00218436 0.00243614 -0.00684036)
(-0.00227946 0.00226236 -0.00661172)
(-0.00206515 0.00222246 -0.00565209)
(-0.00536049 0.00517912 -0.0138601)
(-0.00581098 0.00650594 -0.015613)
(-0.00260667 0.00283404 -0.00696615)
(-0.00146505 0.00250785 -0.00554616)
(-0.00204574 0.00329388 -0.00768744)
(-0.00214545 0.00413905 -0.00855515)
(-0.00194845 0.00461822 -0.00885311)
(-0.0019743 0.00587775 -0.00922312)
(-0.00201918 0.00605283 -0.00864767)
(-0.00152194 0.00542137 -0.00802607)
(-0.00190865 0.00465183 -0.00613259)
(-0.00170944 0.00532502 -0.00744999)
(-0.000786831 0.00379239 -0.00598069)
(-0.00150928 0.00542471 -0.00793305)
(-0.00144255 0.00381984 -0.00637523)
(-0.00146056 0.00435397 -0.0074538)
(-0.000938836 0.00266431 -0.00534114)
(-0.00176737 0.00355194 -0.00738999)
(-0.00196917 0.00410864 -0.0084346)
(-0.0017872 0.00287446 -0.00683046)
(-0.00168802 0.00169478 -0.00535885)
(-0.00265074 0.00240218 -0.00737334)
(-0.00315188 0.00285573 -0.00843432)
(-0.00367169 0.00364876 -0.00920226)
(-0.00351341 0.00306833 -0.00766531)
(-0.00324887 0.00210556 -0.0059809)
(-0.00406392 0.00370498 -0.00835649)
(-0.00444795 0.00492517 -0.00918895)
(-0.00394168 0.00424422 -0.0077396)
(-0.00311906 0.00345513 -0.00575229)
(-0.00422035 0.00521338 -0.00779777)
(-0.00331643 0.00358296 -0.00537478)
(-0.00278084 0.00359517 -0.0057653)
(-0.00228772 0.00287642 -0.00398141)
(-0.0032869 0.00414335 -0.00539287)
(-0.00270242 0.00287643 -0.00342119)
(-0.00206653 0.0026981 -0.00330421)
(-0.00172712 0.00242928 -0.00230717)
(-0.00197786 0.00331645 -0.00321631)
(-0.00147834 0.00311275 -0.00215812)
(-0.0011381 0.00288822 -0.00159679)
(-0.00196545 0.00395479 -0.00154563)
(-0.00346293 0.00722308 -0.0035968)
(-0.00530798 0.0106445 -0.005303)
(-0.00757502 0.0144177 -0.00712111)
(-0.0088974 0.016121 -0.00809829)
(-0.00902746 0.0156064 -0.00821435)
(-0.00825519 0.0136214 -0.00777348)
(-0.00689408 0.0107183 -0.00665373)
(-0.00513824 0.00789074 -0.00506932)
(-0.00568553 0.00776021 -0.00605605)
(-0.00340859 0.00526403 -0.0037431)
(-0.00134533 0.0017609 -0.00165734)
(-0.0016208 0.00162651 -0.0019106)
(-0.00164794 0.00136392 -0.00190285)
(-0.00189875 0.00128585 -0.00232447)
(-0.00186038 0.00121166 -0.00233269)
(-0.00317423 0.00186726 -0.00441321)
(-0.00350079 0.00160823 -0.00414668)
(-0.00312194 0.00197079 -0.00420425)
(-0.00304014 0.00196659 -0.00454884)
(-0.00310577 0.0020734 -0.00423709)
(-0.003074 0.00233739 -0.00450075)
(-0.00236182 0.00226794 -0.00412516)
(-0.00390152 0.00344656 -0.00704032)
(-0.00391374 0.00339737 -0.00625887)
(-0.00338911 0.0033031 -0.00590962)
(-0.00280428 0.00311871 -0.00535214)
(-0.00451952 0.00406663 -0.00856959)
(-0.00422334 0.00376987 -0.00757989)
(-0.00378877 0.00346384 -0.00688358)
(-0.00296522 0.00305366 -0.00601679)
(-0.00474645 0.00391158 -0.00919278)
(-0.00437356 0.00343912 -0.00800803)
(-0.00348653 0.00302088 -0.00685229)
(-0.00238052 0.00258405 -0.00578104)
(-0.00341013 0.00331495 -0.00878731)
(-0.0028709 0.00314118 -0.00747583)
(-0.00235178 0.00262952 -0.00646121)
(-0.00142686 0.0024777 -0.00516492)
(-0.0020735 0.00345702 -0.0076273)
(-0.00222867 0.00489264 -0.00921194)
(-0.00231498 0.00598576 -0.0108934)
(-0.00147327 0.00512863 -0.00848771)
(-0.000709448 0.00382709 -0.00565035)
(-0.00113103 0.00462833 -0.00693366)
(-0.00126223 0.00482415 -0.00711244)
(-0.00139933 0.00442355 -0.00609169)
(-0.00158456 0.00540369 -0.00837611)
(-0.00206556 0.00523557 -0.00664128)
(-0.00192441 0.00584587 -0.00790232)
(-0.00175836 0.00572681 -0.00807742)
(-0.00143703 0.00542942 -0.00748734)
(-0.00377529 0.0106841 -0.0170283)
(-0.00407697 0.0125814 -0.0187702)
(-0.00185228 0.00599677 -0.00909358)
(-0.00096181 0.00516065 -0.00660017)
(-0.00148711 0.00645336 -0.00863315)
(-0.00168982 0.00721838 -0.00921642)
(-0.00166344 0.00712676 -0.00873038)
(-0.00122854 0.00639112 -0.00790263)
(-0.00131242 0.00557472 -0.00601112)
(-0.000944633 0.00631072 -0.00814849)
(-0.00186496 0.00554274 -0.00638348)
(-0.00208646 0.00716217 -0.00882425)
(-0.00187197 0.00620801 -0.00877126)
(-0.00190884 0.00506999 -0.006267)
(-0.0017028 0.00548822 -0.00726951)
(-0.00131414 0.00437183 -0.00574647)
(-0.00178213 0.00646142 -0.00871311)
(-0.00221163 0.0080717 -0.0104866)
(-0.0021765 0.00639158 -0.00902623)
(-0.00161129 0.00501894 -0.00793725)
(-0.00171084 0.00537169 -0.00797771)
(-0.00156654 0.00491333 -0.00764241)
(-0.00124864 0.0029834 -0.00579644)
(-0.00122771 0.0025636 -0.00495817)
(-0.00182994 0.00365085 -0.00724852)
(-0.00182706 0.0026606 -0.00637277)
(-0.00176226 0.00185268 -0.00504064)
(-0.00257765 0.00287217 -0.00714044)
(-0.002358 0.00228784 -0.00564066)
(-0.00381404 0.00366407 -0.00852206)
(-0.00382804 0.00341561 -0.00754419)
(-0.00341236 0.00275054 -0.00617891)
(-0.00275946 0.00271558 -0.00525688)
(-0.00418212 0.00493333 -0.0082022)
(-0.0041598 0.00450516 -0.00759781)
(-0.00336014 0.00402475 -0.006329)
(-0.00356181 0.00407188 -0.00565672)
(-0.00318488 0.00384974 -0.0054272)
(-0.00276157 0.00318522 -0.00394495)
(-0.00260722 0.00303901 -0.0030525)
(-0.0021672 0.00265482 -0.00246485)
(-0.00186337 0.00258132 -0.00190858)
(-0.00175865 0.00239789 -0.00123882)
(-0.00142359 0.00393697 -0.00106073)
(-0.00163413 0.00489791 0.000585256)
(-0.00326552 0.00654538 0.00447334)
(-0.000336381 0.00199555 -0.000451144)
(-0.000541407 0.00212452 -0.000672301)
(-0.000825935 0.00208284 -0.000992405)
(-0.0010797 0.00204611 -0.00127224)
(-0.00102309 0.00200142 -0.00131727)
(-0.000863976 0.00164214 -0.00111688)
(-0.00112786 0.00139212 -0.00141604)
(-0.000795132 0.00102471 -0.00104131)
(-0.00154345 0.000893453 -0.00165649)
(-0.00178756 0.000858431 -0.00194487)
(-0.00191232 0.000916817 -0.00211724)
(-0.00203018 0.00105547 -0.00215009)
(-0.00254814 0.00132427 -0.00281753)
(-0.00316703 0.00126979 -0.00313082)
(-0.00309138 0.00177677 -0.00349931)
(-0.00230267 0.00127354 -0.00250134)
(-0.00258043 0.0018048 -0.00323693)
(-0.00269258 0.00188033 -0.00351202)
(-0.0022061 0.0019942 -0.00348604)
(-0.00250772 0.00247636 -0.00371509)
(-0.0026929 0.00282617 -0.00423181)
(-0.00289228 0.00253807 -0.00448641)
(-0.00304045 0.00255815 -0.00493467)
(-0.00253643 0.00259214 -0.00451344)
(-0.00262275 0.00322205 -0.00480286)
(-0.00305205 0.00315869 -0.00558412)
(-0.00306128 0.00249949 -0.00534962)
(-0.00332851 0.00229943 -0.00549228)
(-0.00264052 0.00235467 -0.0049962)
(-0.00279039 0.00282013 -0.00528684)
(-0.00322662 0.0030869 -0.00618095)
(-0.00280859 0.00234999 -0.00551163)
(-0.00284968 0.00229341 -0.00539403)
(-0.00186441 0.00232185 -0.00472523)
(-0.00213092 0.00294502 -0.00509134)
(-0.00232871 0.00276107 -0.00572469)
(-0.00182781 0.0024823 -0.00524772)
(-0.00269999 0.00334956 -0.00770319)
(-0.00222808 0.00353042 -0.00789751)
(-0.00159533 0.00305674 -0.00615328)
(-0.00216271 0.00461051 -0.00845638)
(-0.0025488 0.00650933 -0.0112029)
(-0.00198724 0.00552153 -0.00959433)
(-0.00175069 0.00548349 -0.00868709)
(-0.00107629 0.0047074 -0.00610483)
(-0.00160237 0.00641991 -0.00854228)
(-0.00178031 0.00819654 -0.0102095)
(-0.00200028 0.00940402 -0.0109917)
(-0.00228655 0.010116 -0.0105495)
(-0.00246678 0.00916013 -0.00927321)
(-0.00236466 0.00702793 -0.0067074)
(-0.00197888 0.0077227 -0.00852006)
(-0.00249124 0.00811773 -0.0075987)
(-0.00169717 0.00620175 -0.00712334)
(-0.00189977 0.00667482 -0.00789604)
(-0.00138597 0.00569837 -0.00715243)
(-0.00206711 0.00639539 -0.0077839)
(-0.00204801 0.00633758 -0.00811583)
(-0.00159588 0.00521126 -0.00683783)
(-0.00136958 0.00464089 -0.00601419)
(-0.00201964 0.00775042 -0.00963954)
(-0.0022306 0.00635637 -0.00865344)
(-0.00155374 0.00497743 -0.00641884)
(-0.0013605 0.00436953 -0.00623001)
(-0.00115516 0.00426246 -0.00614107)
(-0.00144585 0.00314386 -0.00522611)
(-0.00192911 0.0034204 -0.0062974)
(-0.00168249 0.00240567 -0.00489621)
(-0.00250892 0.00361074 -0.00681171)
(-0.00231069 0.00254746 -0.00592597)
(-0.00279537 0.00306799 -0.00696619)
(-0.00178774 0.00188758 -0.00455672)
(-0.00188905 0.00183523 -0.00415763)
(-0.0028367 0.0031693 -0.00623507)
(-0.00293163 0.0032214 -0.00611141)
(-0.00348955 0.00284934 -0.00566317)
(-0.00391256 0.00420247 -0.00713953)
(-0.00328948 0.00377117 -0.00581766)
(-0.00378128 0.00411863 -0.00628444)
(-0.00271017 0.00270987 -0.0042886)
(-0.00261772 0.00321712 -0.0041444)
(-0.00282694 0.00336946 -0.00426459)
(-0.0035726 0.0028948 -0.00339863)
(-0.00415133 0.00355801 -0.00371153)
(-0.0017556 0.00183045 -0.00153725)
(-0.00119129 0.00117199 -0.000702364)
(-0.00151443 0.00228624 -0.000652212)
(-0.00154983 0.00197924 -0.00060896)
(-0.00149328 0.00393718 0.000494056)
(-0.0013208 0.00640836 0.00306131)
(2.48327e-05 0.0017759 -0.000230745)
(-8.37696e-05 0.00194383 -0.000306744)
(0.000159299 0.00207903 -0.000409316)
(6.76219e-05 0.0020781 -0.000542769)
(-0.000169153 0.00218507 -0.000741119)
(-0.000597146 0.00203011 -0.00100233)
(-0.000204777 0.00169198 -0.000662641)
(-5.47497e-05 0.00217727 -0.000943876)
(-0.000261761 0.00216945 -0.00129952)
(0.00039255 0.00152457 -0.000583563)
(-0.000600809 0.00129758 -0.0012751)
(-0.00132765 0.00120158 -0.00184538)
(-0.00251003 0.000999013 -0.00215968)
(-0.00166032 0.00065971 -0.00173449)
(-0.00327858 0.00141066 -0.00353933)
(-0.00410684 0.00176154 -0.00418265)
(-0.00366951 0.00179633 -0.00350978)
(-0.00407418 0.0018886 -0.0035236)
(-0.00608293 0.00405186 -0.00651326)
(-0.00529696 0.00389133 -0.00615065)
(-0.0043086 0.0035376 -0.00551554)
(-0.00409673 0.00377068 -0.00573643)
(-0.00335216 0.00367899 -0.0058015)
(-0.00240122 0.00326656 -0.00488741)
(-0.00294994 0.00282803 -0.0047024)
(-0.00244045 0.00267383 -0.00436087)
(-0.0036598 0.00410469 -0.00733665)
(-0.00334807 0.00357689 -0.00682679)
(-0.00242561 0.00305384 -0.005572)
(-0.00317221 0.00252361 -0.0054088)
(-0.00252826 0.00244586 -0.00509936)
(-0.00378689 0.00427316 -0.00816154)
(-0.00328814 0.00375738 -0.00710714)
(-0.00214718 0.00318262 -0.00553501)
(-0.00245077 0.00268616 -0.00510736)
(-0.00205939 0.00249731 -0.00482575)
(-0.00259879 0.00401534 -0.00778083)
(-0.0022124 0.00332563 -0.00698862)
(-0.00145992 0.00254971 -0.00532041)
(-0.001379 0.00244236 -0.00522874)
(-0.00246153 0.0033744 -0.00751875)
(-0.00225308 0.00382986 -0.00803156)
(-0.00137989 0.0034735 -0.00648232)
(-0.00126125 0.00439678 -0.00704416)
(-0.00181906 0.00433851 -0.00804161)
(-0.00115935 0.00431273 -0.00688059)
(-0.00219179 0.00667589 -0.00954975)
(-0.00185772 0.00650994 -0.0092787)
(-0.00121418 0.00528714 -0.00703748)
(-0.00178366 0.00792761 -0.0100644)
(-0.00246053 0.0104801 -0.0120329)
(-0.00307052 0.0111195 -0.0116547)
(-0.00367291 0.0118799 -0.0116407)
(-0.00411884 0.0109669 -0.0103538)
(-0.00329339 0.00853568 -0.00862987)
(-0.00291625 0.0061426 -0.00566039)
(-0.00257185 0.00655194 -0.00679979)
(-0.00189768 0.00554479 -0.0057781)
(-0.00344447 0.00920685 -0.00899472)
(-0.00246294 0.00723214 -0.00748801)
(-0.00238241 0.0074392 -0.00809555)
(-0.001493 0.00681279 -0.00765111)
(-0.00200585 0.00735424 -0.00806747)
(-0.00224033 0.00736892 -0.00855653)
(-0.00159574 0.006153 -0.00677596)
(-0.00165966 0.00563561 -0.00650839)
(-0.00137178 0.00577255 -0.00688384)
(-0.00156666 0.00501451 -0.00617914)
(-0.00215278 0.00569335 -0.00789904)
(-0.00150792 0.00533259 -0.00649007)
(-0.0018672 0.00468345 -0.00620745)
(-0.00305444 0.00681274 -0.00907699)
(-0.00174871 0.00398351 -0.00593379)
(-0.00217565 0.00388759 -0.00658805)
(-0.00149215 0.00396354 -0.00559045)
(-0.00194512 0.00327828 -0.00531847)
(-0.00287168 0.0039103 -0.00730836)
(-0.00165138 0.00277679 -0.00493208)
(-0.00315043 0.00323768 -0.00678489)
(-0.00285203 0.00333379 -0.0069454)
(-0.00253441 0.00259604 -0.00582633)
(-0.00197052 0.00215929 -0.004286)
(-0.00348202 0.00278667 -0.00619428)
(-0.00350897 0.00334835 -0.00678647)
(-0.00297417 0.00347656 -0.0058105)
(-0.00309107 0.00243055 -0.00537133)
(-0.0033843 0.00259059 -0.00549594)
(-0.00318852 0.00316187 -0.00506222)
(-0.00414689 0.00315349 -0.00579057)
(-0.00443428 0.00425299 -0.00679181)
(-0.00412453 0.00358349 -0.00568384)
(-0.00340241 0.00263584 -0.00416402)
(-0.00378629 0.00291716 -0.00452082)
(-0.00324414 0.00351188 -0.00359382)
(-0.00391391 0.00270744 -0.00358955)
(-0.00369401 0.00207099 -0.0032251)
(-0.00241043 0.00142275 -0.00175622)
(-0.00246708 0.00151024 -0.00133486)
(-0.00175262 0.00212218 -0.000679319)
(-0.000131046 0.00346759 0.000628742)
(-0.000280268 0.00432512 0.000828602)
(-0.00180679 0.00661327 0.00402681)
(0.000433493 0.00325035 -0.000499315)
(0.000234335 0.00262715 -0.000343174)
(0.000647464 0.00278573 -0.000695497)
(0.00030562 0.00182198 -0.000305142)
(0.000676871 0.00293091 -0.000625255)
(0.00119859 0.00367169 -0.000891665)
(0.000513251 0.00211557 -0.000423618)
(0.000153085 0.00202033 -0.00061309)
(0.000904258 0.00291393 -0.000671493)
(0.00126707 0.00334041 -0.000655122)
(0.000978015 0.00304951 -0.000851327)
(0.00139241 0.00246634 -0.000427177)
(0.00238258 0.00390504 -0.000428715)
(0.00274941 0.00401438 0.000136661)
(0.0023146 0.00305257 -0.000328668)
(0.00242396 0.00357382 -0.000634338)
(-7.5546e-05 0.00183201 -0.00125243)
(-0.00295372 0.00134573 -0.00257464)
(7.49307e-05 0.00144338 -0.00152796)
(-0.00252944 0.00146614 -0.00370967)
(-0.0058537 0.00288439 -0.00688144)
(-0.00577791 0.00272874 -0.00686094)
(-0.00679513 0.00390488 -0.00698961)
(-0.00538752 0.00351488 -0.0052663)
(-0.00687894 0.00563667 -0.00765272)
(-0.00404447 0.00369072 -0.00690111)
(-0.00417379 0.00359945 -0.00568211)
(-0.00344601 0.00344157 -0.00580391)
(-0.00303611 0.00269757 -0.00481386)
(-0.00373705 0.00392656 -0.00714)
(-0.00292841 0.00305346 -0.0060985)
(-0.00335821 0.00366951 -0.00702741)
(-0.00311283 0.00267774 -0.00600642)
(-0.00375273 0.00376838 -0.00855621)
(-0.00314926 0.00285079 -0.00687128)
(-0.00359799 0.00369319 -0.00769246)
(-0.00295888 0.0027739 -0.00612045)
(-0.00320666 0.00388704 -0.008479)
(-0.00236235 0.00285256 -0.00664528)
(-0.0024214 0.00349843 -0.00740062)
(-0.00218811 0.0024589 -0.00633071)
(-0.00270279 0.00359942 -0.0093165)
(-0.00243111 0.00294922 -0.00792448)
(-0.0025056 0.00366776 -0.00849379)
(-0.00154818 0.0035794 -0.00721009)
(-0.00164019 0.0035762 -0.00671773)
(-0.00142965 0.00337701 -0.00631333)
(-0.00195909 0.00603012 -0.00970171)
(-0.00195134 0.005726 -0.00862079)
(-0.00114114 0.00474915 -0.00664855)
(-0.00108023 0.00492766 -0.00636365)
(-0.00203476 0.00676001 -0.0090231)
(-0.00186477 0.00753312 -0.00998941)
(-0.00137196 0.00713323 -0.00842107)
(-0.00263818 0.010075 -0.0114645)
(-0.00361791 0.0118905 -0.0128829)
(-0.0025149 0.0089698 -0.00988048)
(-0.00171185 0.00668396 -0.00642722)
(-0.00256012 0.00761877 -0.00712662)
(-0.00280791 0.00724021 -0.00665965)
(-0.00278369 0.00592808 -0.00510199)
(-0.00272095 0.00656345 -0.00656214)
(-0.00309473 0.00678621 -0.00556366)
(-0.00335115 0.00850079 -0.00755151)
(-0.00334343 0.00950141 -0.00870619)
(-0.00260158 0.00975305 -0.0087081)
(-0.005933 0.0190034 -0.0192397)
(-0.00708072 0.0208573 -0.0206766)
(-0.00311981 0.00961331 -0.00991168)
(-0.00250537 0.0080526 -0.00735996)
(-0.00371838 0.00917704 -0.00794847)
(-0.0044176 0.00994359 -0.00770595)
(-0.00454331 0.00897616 -0.00707762)
(-0.0036283 0.0066443 -0.00529334)
(-0.00310367 0.0069136 -0.00647512)
(-0.00379895 0.00734656 -0.00612822)
(-0.00316537 0.0061611 -0.0055669)
(-0.00283007 0.00640231 -0.00569454)
(-0.00217527 0.00582862 -0.00650796)
(-0.00305159 0.0071719 -0.00748856)
(-0.00322252 0.00818713 -0.00828388)
(-0.00263629 0.00749765 -0.00809297)
(-0.00236382 0.00766966 -0.00802203)
(-0.00217975 0.00803452 -0.00833852)
(-0.00135625 0.00623088 -0.00627996)
(-0.00165717 0.00587748 -0.0062999)
(-0.0015677 0.00589348 -0.0061121)
(-0.00279984 0.00872931 -0.00940976)
(-0.00194294 0.00530497 -0.00629121)
(-0.00217285 0.00560024 -0.00705012)
(-0.00133109 0.00612036 -0.00647678)
(-0.00171009 0.00499885 -0.00605812)
(-0.00268941 0.0070863 -0.00879998)
(-0.00385861 0.0085444 -0.0112899)
(-0.00314008 0.00666628 -0.00961119)
(-0.00275192 0.00577945 -0.00857657)
(-0.00229292 0.00456339 -0.00667216)
(-0.00346826 0.00487221 -0.00903545)
(-0.00270559 0.00373313 -0.00700749)
(-0.00259372 0.00302778 -0.00636938)
(-0.00230263 0.00319048 -0.0057535)
(-0.00178074 0.00256453 -0.00483262)
(-0.00304261 0.00311308 -0.00712866)
(-0.00255636 0.00281493 -0.00602668)
(-0.00262862 0.00235815 -0.00573587)
(-0.00250162 0.00303714 -0.00544315)
(-0.00189157 0.0022167 -0.00449985)
(-0.00353137 0.00296716 -0.00683975)
(-0.00313084 0.00286208 -0.00585457)
(-0.00243781 0.00233474 -0.00472183)
(-0.00266041 0.00255978 -0.00444164)
(-0.00442463 0.00367978 -0.0066157)
(-0.00392696 0.00335927 -0.00577679)
(-0.00436102 0.00353652 -0.00573449)
(-0.004048 0.00306292 -0.0046971)
(-0.00372235 0.00191978 -0.00437089)
(-0.00339102 0.001139 -0.00290773)
(-0.00312299 0.00141288 -0.00215029)
(-0.00167617 0.000628124 -0.00116629)
(0.000103742 0.00142041 -4.05451e-05)
(0.00188169 0.0032349 0.00101099)
(0.000798979 0.0049203 0.00153738)
(0.000676629 0.00634044 0.00190813)
(0.00128124 0.00510222 -0.000628895)
(0.000977408 0.0037156 -0.00060806)
(0.00114511 0.00412027 -0.000802248)
(0.000928782 0.00371782 -0.000816734)
(0.00132408 0.0035506 -0.00057281)
(0.000926072 0.00269724 -0.000459499)
(0.00133999 0.00343058 -0.000618096)
(0.00168422 0.0045741 -0.000755341)
(0.00272964 0.00569778 -0.000895642)
(0.00168445 0.00359554 -0.000413784)
(0.00196467 0.0038493 -0.000457192)
(0.00242226 0.00547342 -0.000762291)
(0.0033561 0.00630748 -0.00068257)
(0.00179656 0.00319006 -0.000142445)
(0.00367712 0.0083259 -0.00107993)
(0.00662107 0.0150005 -0.00144328)
(0.00710902 0.0149549 -0.000803051)
(0.00300504 0.00573775 -0.000264457)
(0.00399192 0.00547157 0.000308355)
(0.00396754 0.00885958 -0.00085184)
(0.00386903 0.0090198 -0.000728664)
(0.00455836 0.00765856 0.000204104)
(0.00715553 0.0105252 0.000534667)
(0.0040147 0.00559401 0.00073854)
(0.00360405 0.00395353 -0.000500292)
(0.00251743 0.00364984 -0.00167948)
(-0.00120197 0.00269989 -0.00379521)
(0.00522077 0.00597922 -4.76392e-05)
(0.00287471 0.00303324 -0.00126244)
(0.00136585 0.00124623 -0.00464988)
(-0.00141289 0.00192077 -0.00567283)
(-0.00346441 0.000981658 -0.00425017)
(-0.00321375 0.00158482 -0.00382054)
(-0.00414673 0.00143123 -0.00591254)
(-0.00381034 0.00217333 -0.00419662)
(-0.00541183 0.0039524 -0.0065162)
(-0.00350053 0.00275787 -0.00458218)
(-0.00447999 0.00335918 -0.00535004)
(-0.00686575 0.00381738 -0.0065315)
(-0.00771502 0.00296555 -0.00702138)
(-0.00524391 0.00314444 -0.00627292)
(-0.00513231 0.00413418 -0.00674012)
(-0.00448233 0.00393263 -0.00623856)
(-0.00370417 0.00380032 -0.00543467)
(-0.00402859 0.0036412 -0.00680238)
(-0.00400858 0.00426834 -0.00567424)
(-0.00357272 0.00274523 -0.00441738)
(-0.00920975 0.00756674 -0.0116879)
(-0.0122715 0.00889169 -0.0148477)
(-0.0159565 0.00974092 -0.0177215)
(-0.0171437 0.0106135 -0.0184695)
(-0.0161533 0.0111191 -0.017881)
(-0.0135728 0.0103293 -0.0155907)
(-0.0100478 0.00829183 -0.011689)
(-0.00555133 0.00662265 -0.00760811)
(-0.00114823 0.00516572 -0.00385058)
(0.00701622 0.0138281 -0.00272785)
(0.00647177 0.0119341 -0.00120853)
(0.00439667 0.0065018 -0.000263464)
(0.00351458 0.00525771 2.4524e-05)
(0.00596311 0.0100327 -0.000635407)
(0.0103152 0.0205342 -0.00128906)
(0.00859278 0.0205398 -0.000829421)
(0.00447775 0.0134564 -0.00124762)
(0.00365596 0.0120545 -0.00161485)
(0.00366652 0.00890801 -0.000541332)
(0.00602399 0.0125284 -0.000566541)
(0.00820264 0.0148651 -0.000525681)
(0.00853769 0.0142516 -0.000419536)
(0.00788081 0.0116136 -0.000796681)
(0.00746424 0.0142567 9.06748e-05)
(0.0088544 0.0160482 0.00245013)
(0.00770999 0.00716883 0.000649717)
(0.00252943 0.00176982 0.000367069)
(0.000225737 0.000120302 -0.000945829)
(-0.00143264 -8.8209e-05 -0.00132372)
(-0.00175577 9.23102e-05 -0.00188901)
(5.67768e-05 0.000824567 -0.000191157)
(0.00058844 0.00107495 0.000494729)
(0.00232056 0.00238141 0.00110521)
(0.00388445 0.00476874 0.00140618)
(0.0027188 0.00600271 0.00188823)
(0.00243038 0.00659487 0.00162066)
(0.000759476 0.00963429 0.00289035)
(-6.24718e-05 0.00980286 0.00319968)
(0.000766556 0.00486586 -0.000765994)
(0.00140133 0.00674645 -0.00100319)
(0.00188191 0.00693199 -0.00104757)
(0.00163248 0.00512788 -0.000525887)
(0.00106768 0.003542 -0.000252937)
(0.00140954 0.00390029 -0.000500401)
(0.0021681 0.00638199 -0.000716354)
(0.00328814 0.00903903 -0.00129304)
(0.00337491 0.0079963 -0.00116513)
(0.0035725 0.00816609 -0.000931143)
(0.00268946 0.00588313 -0.000766906)
(0.00368218 0.00644455 -0.000574906)
(0.0031454 0.00603955 -0.000141268)
(0.0029311 0.00844165 -0.0009028)
(0.00325686 0.00967089 -0.00147739)
(0.00441654 0.00980147 -0.000490681)
(0.0022592 0.00840361 -0.00122466)
(0.00419297 0.013184 -0.00151007)
(0.00202509 0.0110061 -0.00262665)
(0.00308739 0.0155332 -0.00318518)
(0.00283939 0.0128717 -0.0031646)
(0.00251697 0.00944354 -0.00138431)
(0.00299943 0.0105795 -0.00159598)
(0.00339633 0.010787 -0.00138418)
(0.00422903 0.0153506 -0.00214182)
(0.00678824 0.0216286 -0.000639827)
(0.00552993 0.0177336 -0.00397461)
(0.00275447 0.01133 -0.00161436)
(0.00203325 0.0108789 -0.00196575)
(0.00501443 0.0130183 -0.000421675)
(0.0102746 0.0131463 0.000128939)
(0.00648122 0.00788768 0.00149401)
(0.003099 0.00215188 0.000812537)
(0.00505972 0.00636512 0.000780406)
(0.00424031 0.00872395 0.000227565)
(0.00391872 0.006906 0.000982753)
(0.00255068 0.0068712 0.000521353)
(0.00192958 0.00673559 0.00134221)
(0.000716709 0.00542461 0.000914757)
(-0.000666441 0.00817969 0.00315704)
(0.00135879 0.0132894 -0.0017619)
(0.000731882 0.00521554 -0.000916319)
(0.00100897 0.00548319 -0.00113664)
(0.00101737 0.00508948 -0.000832342)
(0.00122449 0.00539028 -0.000935767)
(0.00197151 0.00739875 -0.00112935)
(0.00266708 0.0086274 -0.00120649)
(0.00300703 0.00929511 -0.0012402)
(0.00347696 0.00939663 -0.00114927)
(0.00298648 0.00943828 -0.00113318)
(0.00287837 0.00788444 -0.000918001)
(0.00220271 0.00562845 -0.00040814)
(0.00603177 0.0154372 -0.000946208)
(0.00738013 0.0204325 -0.00184815)
(0.0062486 0.0198753 -0.00216649)
(0.00213151 0.00756026 -0.000991539)
(0.0031589 0.00876813 -0.000839934)
(0.00157931 0.00733203 -0.00104797)
(0.0019556 0.00824303 -0.00130574)
(0.00235449 0.0112477 -0.0016793)
(0.00176576 0.0114889 -0.00329869)
(0.00137395 0.00993888 -0.00325309)
(0.00120301 0.00934906 -0.00305789)
(0.00158424 0.0129754 -0.00468926)
(0.00181868 0.015397 -0.00509261)
(0.00226027 0.0166829 -0.00535871)
(0.00222486 0.0156428 -0.00447834)
(0.00223767 0.0127205 -0.0037579)
(0.00118467 0.00881366 -0.00243509)
(0.00149833 0.00964641 -0.00325136)
(0.000711529 0.00919457 -0.00261134)
(0.000182987 0.00825474 -0.00215719)
(0.000758834 0.00883551 -0.00168462)
(0.00187069 0.00887709 -0.000635534)
(0.00341734 0.00762992 0.000163238)
(0.00333725 0.0103913 -5.09018e-05)
(0.00242347 0.0105324 7.90469e-05)
(0.00265977 0.00870666 0.000325314)
(0.00137604 0.00680464 0.000424131)
(0.00109926 0.00526307 0.000391042)
(0.000890085 0.00647485 0.000543561)
(0.00013471 0.00642997 0.000923267)
(-0.00168043 0.00891959 0.00270278)
(0.000482787 0.00530025 -0.0010142)
(0.000772104 0.00553845 -0.00129887)
(0.000966369 0.00580854 -0.00153044)
(0.00117806 0.00580049 -0.00131876)
(0.00115756 0.00586932 -0.0015625)
(0.00130885 0.00561009 -0.00103662)
(0.00239683 0.00803427 -0.00121755)
(0.00212835 0.00823011 -0.00134796)
(0.00269542 0.00958324 -0.00126839)
(0.00233893 0.00936493 -0.00135718)
(0.00248417 0.0092368 -0.00115278)
(0.00137235 0.00855907 -0.00145755)
(0.00121842 0.00641438 -0.000793244)
(0.00173242 0.00907836 -0.00176043)
(0.00129899 0.0102813 -0.00293983)
(0.00203529 0.0111455 -0.00229883)
(0.00134535 0.00983656 -0.00267692)
(0.000769205 0.00762387 -0.00231565)
(0.00076751 0.00775943 -0.00251069)
(0.000434074 0.00719325 -0.00243113)