/*--------------------------------*- C++ -*----------------------------------*\
| =========                 |                                                 |
| \\      /  F ield         | OpenFOAM: The Open Source CFD Toolbox           |
|  \\    /   O peration     | Version:  5.0                                   |
|   \\  /    A nd           | Web:      www.OpenFOAM.org                      |
|    \\/     M anipulation  |                                                 |
\*---------------------------------------------------------------------------*/
FoamFile
{
    version     2.0;
    format      ascii;
    class       volVectorField;
    location    "60";
    object      wallShearStressHyper;
}
// * * * * * * * * * * * * * * * * * * * * * * * * * * * * * * * * * * * * * //

dimensions      [1 -1 -2 0 0 0 0];

internalField   uniform (0 0 0);

boundaryField
{
    Wall_Aorta
    {
        type            calculated;
        value           nonuniform List<vector> 
15036
(
(1.06311 0.368079 -0.646851)
(1.146 0.239263 -0.814752)
(0.0376985 0.0536575 -0.206766)
(0.0302422 0.0675895 -0.213931)
(0.00778668 0.0855328 -0.240086)
(0.00683388 0.0827041 -0.241977)
(-0.021149 0.0457587 -0.203859)
(-0.0290367 0.054654 -0.205739)
(-0.0134025 0.0555733 -0.237874)
(-0.0160241 0.0548633 -0.23551)
(-0.0448406 0.0558876 -0.161131)
(-0.0528971 0.0793443 -0.162375)
(3.71721 -0.519167 -5.95147)
(2.23563 -0.839603 -7.12578)
(6.56118 -0.514734 -4.98311)
(4.37165 2.83545 -3.68771)
(4.61563 -0.452496 -6.66877)
(4.88331 2.66664 -5.3483)
(1.77835 -0.428315 -1.79814)
(1.83562 0.151639 -2.4122)
(3.53121 1.37762 -1.69297)
(0.277394 0.202203 -0.382596)
(3.12149 0.797482 -2.01699)
(0.222329 0.170961 -0.369116)
(10.1855 4.26745 3.43804)
(10.4346 4.808 2.21501)
(13.5498 3.32773 -3.04025)
(13.708 3.26189 -4.04244)
(15.4445 3.58194 -7.13481)
(17.0135 3.75051 -6.95042)
(18.5984 6.54937 -12.2152)
(19.2223 11.1124 -12.4468)
(20.344 9.34656 -11.3096)
(20.3137 9.85212 -12.3537)
(21.6005 12.0953 -15.7356)
(18.8223 5.95216 -13.1186)
(18.836 7.71551 -14.5085)
(-1.83659 2.09802 -6.7895)
(-1.79216 2.18932 -6.27808)
(-0.0977668 2.08431 -3.95407)
(0.635044 2.07687 -4.29083)
(1.60367 0.338714 -2.05191)
(1.54397 0.665609 -2.58545)
(-3.04941 15.1967 -18.4725)
(-2.09519 8.20009 -13.2604)
(-0.44465 1.33742 -7.96416)
(-0.114446 1.41626 -5.093)
(-3.05956 0.24288 -3.0053)
(-3.88532 1.83503 -3.44176)
(-12.715 19.6338 -7.91546)
(-12.8786 16.2843 -6.72297)
(5.36827 0.319097 -1.87096)
(4.97478 1.22709 -1.00523)
(6.38197 6.45094 -5.7879)
(5.55726 4.78504 -6.64281)
(4.55086 5.38742 -7.39744)
(4.90808 4.31348 -5.78791)
(-0.215956 1.13475 -1.58305)
(-0.306372 0.771542 -0.591189)
(-0.421889 0.779272 -0.828962)
(-0.223631 1.14462 -1.50148)
(-1.08512 3.90418 -1.90942)
(-1.14146 2.99596 -1.79255)
(0.84831 0.820636 -0.560365)
(1.50743 1.08199 -0.860076)
(0.149571 0.267317 -0.317745)
(0.165242 0.303855 -0.282364)
(2.36137 7.82645 -4.91371)
(2.68419 8.6548 -4.91805)
(2.11398 0.467928 -1.09424)
(2.22132 0.67833 -1.18544)
(-0.00974732 -0.127324 0.453271)
(0.267173 -0.432507 0.262076)
(12.0461 -11.9356 -8.32724)
(13.5115 -11.5975 -8.75209)
(11.7778 -12.9921 -7.61126)
(9.28356 -9.02967 -4.4559)
(8.78752 -8.47839 -5.10996)
(1.69014 -1.97475 -0.86813)
(1.84198 -1.97224 -0.60717)
(1.78221 -1.65698 -0.438794)
(2.71193 -0.185271 -0.0514388)
(0.634279 2.61696 0.0845802)
(1.77715 0.0927418 -0.0859787)
(1.97735 0.13282 -0.065834)
(8.1102 2.7476 1.321)
(7.22014 1.90118 1.42927)
(7.1966 1.69577 0.0396518)
(6.95132 1.74979 1.45855)
(6.50362 1.27692 0.671344)
(-1.05651 0.677683 -1.13557)
(-1.13695 0.598364 -1.04406)
(0.190527 0.283856 -0.540542)
(0.171372 0.289422 -0.550873)
(0.0459829 0.115919 -0.422865)
(0.0687341 0.113779 -0.39459)
(5.71371 1.4774 -0.131956)
(0.799504 0.107981 -0.020952)
(1.35737 0.188948 0.0123728)
(2.51054 0.284296 -0.249427)
(1.47215 0.0905221 -0.249449)
(3.91629 0.508937 -4.58502)
(2.97046 1.35782 -5.34138)
(2.60739 0.241177 -2.56452)
(2.2869 0.22508 -2.46164)
(-1.37937 4.22856 -4.19216)
(-0.652067 5.01054 -5.30028)
(3.04506 0.228581 -1.99928)
(2.86084 0.208867 -1.83771)
(2.24831 0.147194 -1.31049)
(1.84327 0.265291 -1.48663)
(-0.144803 0.274652 -0.161172)
(-0.162015 0.271629 -0.268575)
(-0.156526 0.286981 -0.079897)
(-0.152611 0.294731 -0.272055)
(-0.120873 0.288808 -0.0978312)
(-0.0988741 0.225724 -0.16656)
(-0.120486 0.284471 -0.240545)
(-0.0569083 0.270425 -0.0686348)
(-0.753611 1.48599 -1.06254)
(-0.825239 1.3921 -1.05047)
(-0.583851 1.41089 -1.0287)
(-0.31259 0.750998 -0.604128)
(-0.282417 0.747145 -0.73757)
(-0.322843 0.774121 -0.60444)
(-0.423548 0.721547 -0.532117)
(-0.351207 0.577237 -0.662226)
(-0.402758 0.873227 -0.59985)
(-0.402566 0.80483 -0.523825)
(-0.471245 0.641576 -0.624345)
(-0.344137 0.839949 -0.60853)
(-0.333854 0.703814 -0.447776)
(-0.282414 0.619774 -0.461001)
(-0.314759 0.70382 -0.374316)
(-0.275271 0.647919 -0.580877)
(-0.254918 0.753384 -0.407422)
(-0.204561 0.686157 -0.581656)
(-0.200859 0.761687 -0.38876)
(-0.240856 0.526651 -0.279949)
(-0.248043 0.536993 -0.440054)
(-0.238719 0.511765 -0.22614)
(-0.143296 0.38362 -0.151076)
(-0.232102 0.353401 -0.193951)
(-0.174399 0.336481 -0.0867513)
(-0.312274 0.689279 -0.368768)
(-0.168649 0.550304 -0.216256)
(-0.310504 0.524227 -0.304599)
(-0.222152 0.544228 -0.446208)
(-0.200851 0.546771 -0.246471)
(-0.163269 0.547489 -0.436969)
(-0.148089 0.517713 -0.235457)
(-0.358235 0.963021 -0.478593)
(-0.432426 0.785928 -0.580243)
(-0.435383 0.933593 -0.497645)
(-0.508978 0.760925 -0.549261)
(-0.358959 0.860034 -0.498882)
(-0.456273 1.11069 -0.4957)
(-0.349303 0.749341 -0.503814)
(-0.354085 0.662832 -0.640892)
(-0.323682 0.831378 -0.56525)
(-0.279687 0.910351 -0.651029)
(-0.2776 0.767443 -0.347062)
(-0.441608 0.786009 -0.333551)
(-0.322903 0.713518 -0.28284)
(-0.264121 0.680914 -0.259203)
(-0.255964 0.876702 -0.360835)
(-0.465257 0.930864 -0.380827)
(-0.238431 0.73284 -0.273177)
(-0.462219 0.818731 -0.537726)
(-0.529028 0.738999 -0.719995)
(-0.503763 0.897858 -0.559775)
(-0.405703 0.773924 -0.508367)
(-0.547124 0.784543 -0.580444)
(-0.416217 0.824684 -0.494388)
(-0.67154 1.03612 -0.831858)
(-0.376106 0.886564 -0.449647)
(-0.527474 0.715566 -0.378589)
(-0.393466 0.793957 -0.462672)
(-0.329248 1.01182 -0.471269)
(-0.496106 0.849234 -0.413405)
(-0.433659 0.860343 -0.474152)
(-0.510581 0.619403 -0.546008)
(-0.379873 0.787677 -0.510633)
(-0.452857 0.985031 -0.502509)
(-0.720783 1.31969 -0.841566)
(-0.803412 1.16376 -0.973569)
(-0.563207 1.19747 -0.799506)
(-0.38743 1.00913 -0.637035)
(-0.692661 1.06112 -0.668818)
(-0.712298 1.53539 -0.95111)
(-0.364448 1.19768 -0.745732)
(-0.657032 1.27585 -0.741337)
(-0.198879 1.04679 -0.427436)
(-0.397205 0.972314 -0.42863)
(-0.347837 0.978026 -0.452632)
(-0.39494 1.10728 -0.534879)
(-0.376358 1.06725 -0.594502)
(-0.312544 1.04552 -0.61777)
(-0.48003 1.07621 -0.498233)
(-0.407761 1.19046 -0.477582)
(-0.395664 1.11917 -0.465005)
(-0.337907 1.20167 -0.437845)
(-0.213859 0.915624 -0.353103)
(-0.412549 1.02059 -0.366067)
(-0.23339 0.738762 -0.257121)
(-0.123828 0.902356 -0.314987)
(-0.28734 1.08073 -0.372603)
(-0.250128 0.850009 -0.36496)
(-0.189426 0.69632 -0.252423)
(-0.245555 0.622758 -0.264727)
(-0.263213 1.16626 -0.41871)
(-0.334824 1.00391 -0.391784)
(-0.223281 1.10283 -0.360469)
(-0.272251 0.932648 -0.366187)
(-0.231847 1.01074 -0.572261)
(-0.172194 0.90824 -0.516972)
(-0.166481 0.950724 -0.41484)
(-0.220011 0.796038 -0.309576)
(-0.116622 0.689036 -0.335335)
(-0.177238 0.593936 -0.24613)
(-0.134075 0.765688 -0.448744)
(-0.0797862 0.589643 -0.3555)
(-0.131258 0.595294 -0.2883)
(-0.164754 0.574231 -0.318584)
(-0.587641 1.74858 -1.27441)
(-0.685945 1.59792 -1.1826)
(-0.45037 1.90854 -1.43703)
(-0.646999 1.85735 -1.34968)
(-0.193779 1.95403 -1.58181)
(-0.378588 2.0599 -1.49466)
(-0.287487 1.7586 -1.69396)
(-0.590652 1.70298 -1.0575)
(-0.212303 1.23175 -0.783774)
(-0.475327 1.46246 -0.830709)
(-0.389318 1.19919 -0.924147)
(-0.508067 1.65398 -1.19998)
(-0.431173 1.40536 -1.17861)
(-0.26847 1.11851 -0.715052)
(-0.410506 0.991462 -0.747409)
(-0.235839 1.0661 -0.636224)
(-0.36863 0.90994 -0.632466)
(-0.35221 1.12782 -0.992223)
(-0.32455 0.957253 -0.851231)
(-0.328228 1.80727 -1.50974)
(-0.416803 1.58293 -1.54029)
(-0.370036 1.56659 -1.36309)
(-0.484797 1.40949 -1.42532)
(-0.365483 1.26105 -1.09129)
(-0.532903 1.25205 -1.20366)
(-0.363213 0.929735 -0.811146)
(-0.448804 0.895478 -0.936349)
(-0.392426 1.02274 -0.842423)
(-0.193514 0.985071 -0.554585)
(-0.334578 0.822212 -0.544441)
(-0.154846 0.851908 -0.450967)
(-0.202287 0.77429 -0.452548)
(-0.25586 0.786742 -0.536418)
(-0.25643 0.768654 -0.674281)
(-0.329791 0.737369 -0.685685)
(-0.328957 0.867013 -0.632165)
(-0.127553 0.658141 -0.341724)
(-0.171524 0.575476 -0.427899)
(-0.158619 0.637968 -0.298939)
(-0.213818 0.564907 -0.495919)
(-0.234905 0.667053 -0.382412)
(-0.0628032 0.170015 -0.130945)
(-0.0923346 0.133639 -0.135998)
(-0.0643562 0.186612 -0.154561)
(-0.0485537 0.129962 -0.0924982)
(-0.0902619 0.100462 -0.0891978)
(-0.0712888 0.146251 -0.110635)
(-0.0468493 0.138343 -0.126111)
(-0.0769221 0.0979456 -0.10781)
(-0.0581584 0.15734 -0.143781)
(-0.03302 0.104258 -0.0737829)
(-0.0784878 0.0884873 -0.085838)
(-0.0361869 0.0952438 -0.0954907)
(-0.0549364 0.0618355 -0.0842463)
(-0.0475608 0.0875185 -0.0682587)
(-0.0882787 0.0685509 -0.05088)
(-0.0688312 0.0973992 -0.0579229)
(-0.0292905 0.08027 -0.0558419)
(-0.0778041 0.0702429 -0.0654568)
(-0.0614917 0.0784325 -0.062416)
(-0.0424618 0.0919907 -0.0660116)
(-0.0344551 0.0720073 -0.0791485)
(-0.0505964 0.0483632 -0.063416)
(-0.0442653 0.0815092 -0.0668427)
(-0.0243302 0.0670555 -0.0729873)
(-0.0546658 0.0475857 -0.0655129)
(-0.055944 0.0676123 -0.0731555)
(-0.0813589 0.145032 -0.0761)
(-0.0969641 0.101949 -0.0856456)
(-0.0822122 0.148161 -0.0728395)
(-0.0793325 0.105297 -0.0523816)
(-0.0678387 0.0544518 -0.0613896)
(-0.0829658 0.101858 -0.0515464)
(-0.0787847 0.0480606 -0.058781)
(-0.0862676 0.0922781 -0.0516176)
(-0.0870477 0.151086 -0.0766733)
(-0.0938819 0.147258 -0.0795077)
(-0.0840239 0.177569 -0.110302)
(-0.0845652 0.145977 -0.124366)
(-0.0930617 0.186478 -0.121638)
(-0.0738723 0.200919 -0.139332)
(-0.0969262 0.172385 -0.156587)
(-0.0747501 0.222491 -0.152114)
(-0.0851884 0.227641 -0.147205)
(-0.0734234 0.164017 -0.104095)
(-0.103561 0.126246 -0.111775)
(-0.0764949 0.167227 -0.110836)
(-0.0972467 0.146637 -0.114442)
(-0.104182 0.186865 -0.110601)
(-0.0972187 0.146105 -0.115626)
(-0.111992 0.187544 -0.106865)
(-0.10084 0.234804 -0.141228)
(-0.112637 0.233303 -0.135425)
(-0.0738157 0.043743 -0.0670801)
(-0.0874815 0.0892681 -0.0545033)
(-0.0626336 0.0700376 -0.0676319)
(-0.0714924 0.0432203 -0.0729549)
(-0.0736914 0.0895056 -0.0451091)
(-0.0929974 0.14657 -0.0826235)
(-0.0906575 0.119189 -0.0875086)
(-0.0577551 0.0894713 -0.0910765)
(-0.063304 0.0590791 -0.085712)
(-0.0741687 0.106231 -0.0621522)
(-0.09304 0.155773 -0.100123)
(-0.0985565 0.144542 -0.110851)
(-0.103493 0.184559 -0.0895131)
(-0.120395 0.228349 -0.137367)
(-0.106321 0.173102 -0.12623)
(-0.0968273 0.161664 -0.117174)
(-0.107067 0.197839 -0.106641)
(-0.105233 0.162015 -0.0963874)
(-0.0661849 0.118872 -0.109691)
(-0.0814157 0.140383 -0.0905496)
(-0.0699199 0.142646 -0.127018)
(-0.107534 0.162548 -0.109239)
(-0.0397376 0.0753644 -0.0158321)
(-0.0533425 0.0139524 -0.00074802)
(-0.0561177 0.0586741 -0.00596943)
(-0.052881 0.0601954 -0.0201473)
(-0.0444107 0.00689443 -0.0184269)
(-0.0575192 0.0616309 -0.0120694)
(-0.0682365 0.012044 -0.0206107)
(-0.0685763 0.0526763 -0.00879653)
(-0.0317361 0.0464861 0.00368371)
(-0.042556 -0.00999352 0.00794513)
(-0.0410064 0.0416251 0.0130808)
(-0.0550036 0.00155722 -0.00559839)
(-0.0597004 0.0399818 0.0149781)
(-0.0274706 0.0650878 -0.00549982)
(-0.0628335 0.014614 -0.0118924)
(-0.062083 0.0535448 0.0324883)
(-0.0551204 0.148931 -0.0340477)
(-0.107968 0.0980199 -0.0541118)
(-0.0859299 0.117657 0.0239961)
(-0.0155932 0.0831518 -0.00794771)
(-0.0713049 0.0391517 0.00589264)
(-0.0498917 0.0650614 0.0329209)
(-0.0332288 0.0697151 -0.0137862)
(-0.0486273 0.0187746 -0.0134497)
(-0.0180688 0.0583531 -0.0116232)
(-0.0519169 0.0212132 0.010812)
(-0.0400682 0.0518645 0.0170174)
(-0.0392831 0.0834603 -0.0135103)
(-0.0256587 0.0508924 0.000752703)
(-0.045101 0.00211826 0.00261031)
(-0.056842 0.0475091 -0.0139001)
(-0.0613061 0.00300153 -0.0332574)
(-0.0710617 0.0442767 0.00923092)
(-0.0729159 0.0166033 -0.0516431)
(-0.0631705 0.0463257 -0.00642252)
(-0.0405541 0.0343967 -0.0479322)
(-0.0596742 0.0123181 -0.0621134)
(-0.0453957 0.0313753 0.00468045)
(-0.061052 0.0349531 -0.0197734)
(-0.0529451 -0.00196622 -0.0345118)
(-0.0696788 0.0314553 -0.00641221)
(-0.0513578 0.0307355 -0.0397676)
(-0.0617563 0.00353603 -0.0432464)
(-0.0488332 0.0321908 -0.00325208)
(-0.0684019 0.0565579 -0.0241401)
(-0.0647002 0.054583 -0.0355314)
(-0.0320962 0.0340773 -0.0509022)
(-0.0479503 0.00776038 -0.050348)
(-0.04154 0.0342619 -0.0158996)
(-0.047708 0.0439696 -0.03162)
(-0.0087559 0.0174511 -0.0429112)
(-0.0338257 0.00183411 -0.0475648)
(-0.0126986 0.0229446 -0.000188631)
(-0.00161825 0.0402008 -0.048369)
(-0.0331313 0.0504091 -0.0284263)
(-0.0608339 0.101553 -0.0304285)
(-0.110752 0.0645942 -0.0492275)
(-0.0926541 0.098106 0.00644294)
(-0.118089 0.106866 -0.121643)
(-0.0938188 0.122857 -0.0169845)
(-0.136054 0.162491 -0.108582)
(-0.0956666 0.102861 -0.139727)
(-0.0740448 0.116321 -0.027535)
(-0.0382738 0.097923 -0.0932911)
(-0.0710433 0.0997103 -0.135902)
(-0.0479243 0.095355 -0.0125187)
(-0.0431589 0.0752372 -0.0254347)
(-0.0689197 0.106374 -0.0447389)
(-0.0769126 0.0436965 -0.044816)
(-0.07831 0.103507 -0.0430484)
(-0.0725325 0.138339 -0.0743978)
(-0.0972798 0.0937549 -0.0753043)
(-0.0834373 0.141251 -0.0781737)
(-0.0583059 0.0962736 -0.0471161)
(-0.080397 0.0612776 -0.0242055)
(-0.0720539 0.0955493 -0.0311193)
(-0.0701192 0.121777 -0.0587118)
(-0.0469008 0.102366 -0.0420061)
(-0.0722799 0.0587727 -0.0312677)
(-0.0390023 0.0977308 -0.0439082)
(-0.0702673 0.0596389 -0.0319445)
(-0.0664526 0.0725813 -0.0528022)
(-0.0241945 0.04643 -0.066129)
(-0.0354127 0.0183257 -0.0621165)
(-0.0379127 0.0500911 -0.0321795)
(-0.024766 0.0682429 -0.0831837)
(-0.060508 0.079631 -0.0623136)
(-0.0352689 0.095298 -0.0826911)
(-0.0752946 0.104558 -0.0843347)
(-0.0423188 0.116609 -0.100881)
(-0.0860772 0.12882 -0.103971)
(-0.029422 0.0980521 -0.0919402)
(-0.0402272 0.101029 -0.109235)
(-0.0978908 0.22818 -0.227115)
(-0.0815542 0.237316 -0.205344)
(-0.091968 0.251238 -0.219643)
(-0.12656 0.235967 -0.221692)
(-0.0792111 0.261775 -0.194364)
(-0.102906 0.22392 -0.215184)
(-0.1125 0.203523 -0.210804)
(-0.0868327 0.218053 -0.227875)
(-0.0776034 0.238497 -0.234025)
(-0.105004 0.223771 -0.242702)
(-0.0942895 0.228583 -0.203906)
(-0.0984537 0.228054 -0.233158)
(-0.0970391 0.240767 -0.227194)
(-0.127446 0.224653 -0.224301)
(-0.0965097 0.264269 -0.205361)
(-0.0919426 0.232061 -0.220583)
(-0.0706566 0.214361 -0.171224)
(-0.0993687 0.199511 -0.188881)
(-0.0678774 0.237489 -0.193299)
(-0.0689299 0.248924 -0.20713)
(-0.103425 0.243162 -0.225847)
(-0.0629695 0.189264 -0.165593)
(-0.093647 0.1775 -0.16165)
(-0.0633652 0.203069 -0.179711)
(-0.0879562 0.248764 -0.207716)
(-0.089945 0.217162 -0.219241)
(-0.112699 0.217223 -0.208417)
(-0.0894107 0.218858 -0.230877)
(-0.107809 0.253146 -0.235562)
(-0.0786517 0.230615 -0.232227)
(-0.105423 0.234645 -0.224553)
(-0.104055 0.251749 -0.23183)
(-0.0774622 0.14651 -0.237329)
(-0.106391 0.1395 -0.235489)
(-0.0526914 0.111115 -0.218648)
(-0.0920281 0.117767 -0.214934)
(-0.0897849 0.111756 -0.234871)
(-0.0872818 0.127774 -0.240623)
(-0.111525 0.153679 -0.235205)
(-0.101121 0.139813 -0.242902)
(-0.0595389 0.149063 -0.226722)
(-0.1045 0.169967 -0.228273)
(-0.103722 0.152728 -0.244059)
(-0.113349 0.126868 -0.216046)
(-0.0721234 0.135498 -0.211238)
(-0.103221 0.148939 -0.212187)
(-0.119311 0.142082 -0.218632)
(-0.105411 0.191273 -0.24312)
(-0.142253 0.219136 -0.238802)
(-0.0994371 0.198744 -0.246698)
(-0.103163 0.192445 -0.242137)
(-0.0946992 0.209589 -0.257056)
(-0.123336 0.226296 -0.246734)
(-0.104605 0.200218 -0.246289)
(-0.0914303 0.218213 -0.257416)
(-0.120723 0.230307 -0.247443)
(-0.111975 0.210965 -0.24632)
(-0.0875239 0.220636 -0.255101)
(-0.115566 0.229415 -0.236998)
(-0.116864 0.189803 -0.246979)
(-0.116113 0.193399 -0.261281)
(-0.0701903 0.185593 -0.162285)
(-0.0843039 0.232036 -0.195835)
(-0.0675308 0.157662 -0.141609)
(-0.0806717 0.215249 -0.175663)
(-0.0792592 0.238353 -0.23077)
(-0.106763 0.238864 -0.220551)
(-0.104573 0.252683 -0.223247)
(-0.0787625 0.242791 -0.233684)
(-0.101799 0.228537 -0.202777)
(-0.107382 0.2332 -0.222265)
(-0.0647972 0.132859 -0.120247)
(-0.0763175 0.196564 -0.15563)
(-0.063855 0.118714 -0.111617)
(-0.0763799 0.157449 -0.133542)
(-0.0597318 0.228293 -0.204499)
(-0.0848545 0.215084 -0.180958)
(-0.0885785 0.20308 -0.186073)
(-0.0884543 0.243798 -0.212478)
(-0.109993 0.217633 -0.190371)
(-0.0857986 0.187659 -0.175005)
(-0.0991874 0.201016 -0.183866)
(-0.0665211 0.216497 -0.231781)
(-0.100682 0.235464 -0.225062)
(-0.10174 0.208171 -0.236484)
(-0.0938418 0.208717 -0.233364)
(-0.122799 0.192606 -0.220523)
(-0.10977 0.2211 -0.24266)
(-0.117649 0.20367 -0.231134)
(-0.108192 0.185193 -0.219569)
(-0.12774 0.185532 -0.217409)
(-0.105213 0.170036 -0.23604)
(-0.132187 0.172036 -0.195921)
(-0.122126 0.191696 -0.223502)
(-0.12823 0.180401 -0.214815)
(-0.095496 0.227378 -0.205015)
(-0.1193 0.215697 -0.191019)
(-0.105027 0.21016 -0.196336)
(-0.12761 0.202994 -0.186326)
(-0.1097 0.20486 -0.19416)
(-0.0960727 0.20257 -0.189318)
(-0.118019 0.2058 -0.162438)
(-0.105581 0.197199 -0.184531)
(-0.126866 0.195391 -0.177593)
(-0.119223 0.178283 -0.171848)
(-0.106577 0.176088 -0.171363)
(-0.138346 0.176877 -0.160829)
(-0.102387 0.201888 -0.188597)
(-0.112962 0.198522 -0.162558)
(-0.118825 0.182455 -0.175989)
(-0.108242 0.195057 -0.176973)
(-0.0991452 0.18995 -0.140585)
(-0.0991145 0.192836 -0.185792)
(-0.111402 0.212365 -0.1495)
(-0.0984722 0.236971 -0.186519)
(-0.0979335 0.250113 -0.221368)
(-0.106844 0.27609 -0.194571)
(-0.105114 0.243339 -0.195465)
(-0.110747 0.278772 -0.168804)
(-0.077561 0.226782 -0.168854)
(-0.0799903 0.211373 -0.186424)
(-0.0883461 0.263966 -0.180497)
(-0.0918473 0.205425 -0.165424)
(-0.0950351 0.262667 -0.155733)
(-0.106709 0.243599 -0.187418)
(-0.114221 0.229662 -0.169592)
(-0.120146 0.206351 -0.148438)
(-0.110119 0.235722 -0.16593)
(-0.114394 0.227386 -0.13744)
(-0.0988375 0.211835 -0.160965)
(-0.100709 0.258025 -0.146066)
(-0.104551 0.215435 -0.155982)
(-0.112134 0.256831 -0.138794)
(-0.137804 0.259169 -0.187024)
(-0.122605 0.239597 -0.178738)
(-0.12344 0.203109 -0.142533)
(-0.114173 0.221857 -0.14585)
(-0.105101 0.217403 -0.125387)
(-0.106524 0.194875 -0.157397)
(-0.135132 0.256524 -0.162529)
(-0.117953 0.190528 -0.16155)
(-0.107832 0.216148 -0.160587)
(-0.112522 0.201371 -0.136488)
(-0.103334 0.192169 -0.176278)
(-0.141583 0.213251 -0.167642)
(-0.114477 0.201541 -0.15126)
(-0.11045 0.209093 -0.153505)
(-0.14617 0.213225 -0.16329)
(-0.0958586 0.201597 -0.168486)
(-0.129852 0.199683 -0.172635)
(-0.103474 0.194327 -0.152058)
(-0.129838 0.22032 -0.139865)
(-0.0978212 0.198773 -0.160161)
(-0.134777 0.2257 -0.148231)
(-0.0742793 0.163411 -0.139375)
(-0.113086 0.179729 -0.12798)
(-0.0802264 0.183821 -0.160194)
(-0.1204 0.196079 -0.145191)
(-0.118502 0.203214 -0.172816)
(-0.106171 0.197477 -0.185295)
(-0.0885707 0.209969 -0.154517)
(-0.120663 0.212564 -0.161122)
(-0.0600895 0.211788 -0.171554)
(-0.0985792 0.215961 -0.167167)
(-0.101876 0.205813 -0.174724)
(-0.104947 0.195551 -0.191699)
(-0.145435 0.209854 -0.184562)
(-0.100699 0.196591 -0.213844)
(-0.140482 0.199476 -0.197539)
(-0.0910075 0.19805 -0.177502)
(-0.130459 0.195431 -0.183021)
(-0.0721593 0.198665 -0.194714)
(-0.10426 0.200687 -0.189274)
(-0.115128 0.194118 -0.203608)
(-0.0961907 0.18366 -0.19705)
(-0.127595 0.186265 -0.207212)
(-0.079978 0.184833 -0.214136)
(-0.11754 0.172031 -0.215307)
(-0.0984839 0.19718 -0.219022)
(-0.0988097 0.179581 -0.212957)
(-0.102739 0.190866 -0.165292)
(-0.100201 0.199846 -0.185653)
(-0.0969941 0.214726 -0.182998)
(-0.0958855 0.19346 -0.175584)
(-0.0550147 0.2013 -0.189495)
(-0.0914135 0.18704 -0.189651)
(-0.0904165 0.185823 -0.206841)
(-0.0834202 0.202527 -0.194822)
(-0.0708097 0.198523 -0.192501)
(-0.0993182 0.184902 -0.190457)
(-0.0782158 0.194516 -0.187116)
(-0.0515725 0.145316 -0.115509)
(-0.0969194 0.147459 -0.122245)
(-0.03344 0.149638 -0.122662)
(-0.0909072 0.182565 -0.142062)
(-0.0930824 0.164082 -0.148625)
(-0.0537158 0.134473 -0.111444)
(-0.0389272 0.15751 -0.1362)
(-0.0963594 0.18492 -0.141165)
(-0.100227 0.220891 -0.159431)
(-0.103098 0.218204 -0.180893)
(-0.086152 0.213157 -0.166805)
(-0.0968821 0.21407 -0.164949)
(-0.0354102 0.144283 -0.101851)
(-0.0588383 0.15196 -0.111151)
(-0.0485621 0.161794 -0.0920022)
(-0.0185451 0.173555 -0.120729)
(-0.0854476 0.195722 -0.142876)
(-0.070032 0.186415 -0.161615)
(-0.0909996 0.236426 -0.146856)
(-0.0397576 0.159034 -0.110138)
(-0.0938214 0.178902 -0.124281)
(-0.0873806 0.216966 -0.133325)
(-0.103713 0.210007 -0.166482)
(-0.0893821 0.163985 -0.170711)
(-0.0491012 0.181313 -0.143553)
(-0.0906954 0.222696 -0.171344)
(-0.0898154 0.216214 -0.169999)
(-0.0505113 0.210802 -0.167145)
(-0.0976095 0.208259 -0.173943)
(-0.0883866 0.20188 -0.18523)
(-0.0718859 0.21438 -0.172587)
(-0.108638 0.20697 -0.173463)
(-0.0669045 0.195849 -0.183761)
(-0.0949661 0.18832 -0.192503)
(-0.074976 0.193628 -0.182576)
(-0.0631472 0.187753 -0.17573)
(-0.0881799 0.178301 -0.182488)
(-0.0692148 0.188408 -0.176019)
(-0.0848173 0.21741 -0.165633)
(-0.0578603 0.203852 -0.149994)
(-0.0868582 0.190148 -0.173332)
(-0.0706741 0.212327 -0.162912)
(-0.106647 0.210268 -0.173221)
(-0.075602 0.201829 -0.145562)
(-0.10954 0.20134 -0.147294)
(-0.0786118 0.192008 -0.137977)
(-0.0659034 0.178837 -0.159163)
(-0.0844295 0.161432 -0.153255)
(-0.0612594 0.168335 -0.157066)
(-0.045794 0.173606 -0.15314)
(-0.0817096 0.172924 -0.181056)
(-0.0607088 0.17415 -0.149572)
(-0.0600906 0.158926 -0.149831)
(-0.0537477 0.152051 -0.140846)
(-0.0565998 0.172813 -0.149947)
(-0.0364147 0.0594686 -0.0658239)
(-0.0724907 0.0533903 -0.0612898)
(-0.0496167 0.0728362 -0.0790761)
(-0.025836 0.0540878 -0.0581866)
(-0.0729579 0.0485118 -0.0598666)
(-0.069543 0.0559339 -0.061812)
(-0.0448453 0.0594766 -0.0603107)
(-0.0755235 0.0518774 -0.0545875)
(-0.0688863 0.231635 -0.0576401)
(-0.177312 0.204246 -0.0874267)
(-0.0212674 0.11565 -0.0187502)
(-0.100289 0.0862289 -0.0271284)
(-0.0671505 0.304606 -0.0965575)
(-0.215568 0.292397 -0.131101)
(-0.0286519 0.145696 -0.0285686)
(-0.125757 0.122467 -0.045339)
(-0.0263138 0.067383 -0.0128724)
(-0.0644811 0.0423479 -0.00576731)
(-0.0370087 0.091126 -0.0259653)
(-0.00482242 0.07278 -0.0120582)
(-0.0737412 0.0533849 -0.0268678)
(-0.0587298 0.0840756 -0.0192855)
(-0.0362176 0.0906209 -0.0236219)
(-0.0720624 0.346414 -0.106879)
(-0.252555 0.382007 -0.155946)
(0.00433186 0.142779 -0.0481908)
(-0.138409 0.153098 -0.0782064)
(-0.0998891 0.169305 -0.0629638)
(-0.0738443 0.334044 -0.139019)
(-0.256494 0.445161 -0.164578)
(-0.0502335 0.23374 -0.114119)
(0.00416933 0.0752906 -0.0200495)
(-0.0683181 0.0538343 -0.0366739)
(-0.0496254 0.0694013 -0.0160931)
(-0.0320527 0.110326 -0.0372352)
(0.00427758 0.09673 -0.0260217)
(-0.0915952 0.0969906 -0.0595193)
(-0.0122132 0.0700193 -0.0276843)
(-0.035872 0.0733574 -0.0501876)
(-0.0680789 0.059536 -0.0320307)
(-0.048324 0.0868106 -0.0692281)
(-0.0115993 0.0621183 -0.0378488)
(-0.06139 0.055762 -0.0383574)
(-0.0482773 0.0634428 -0.0383569)
(-0.04715 0.0708633 -0.0516182)
(-0.0229387 0.0650371 -0.036068)
(-0.0177669 0.0518087 -0.0426254)
(-0.05587 0.025001 -0.0474142)
(-0.0524311 0.034136 -0.0300902)
(0.00866284 0.0411381 -0.0183234)
(-0.0443515 0.0235364 -0.0296601)
(-0.0350826 0.0243381 -0.00925769)
(-0.0128512 0.0212108 -0.0355268)
(-0.0366288 0.00359276 -0.00398545)
(-0.0387146 0.0468362 -0.0621003)
(-0.0588398 0.0264882 -0.0255704)
(-0.047177 0.0521119 -0.0650748)
(-0.0671852 0.0349854 -0.0276252)
(-0.0206693 0.0195349 -0.0373245)
(-0.0397462 0.00340704 -0.00138835)
(-0.0363719 0.0245597 -0.0438936)
(-0.0469823 0.0102791 -0.00108895)
(-0.0189206 0.0471485 0.0233596)
(-0.0374586 0.352517 -0.128997)
(-0.231621 0.473808 -0.1865)
(-0.182195 0.352359 -0.175793)
(-0.0241051 0.212669 -0.0649657)
(-0.113977 0.165041 -0.092183)
(0.00986122 0.0757331 -0.026787)
(-0.0797572 0.0669505 -0.0379295)
(-0.0545557 0.0739472 -0.010321)
(0.00134899 0.0513469 -0.0182275)
(-0.0316973 0.0216115 0.00100827)
(0.0236458 0.0628323 -0.0435569)
(-0.0675783 0.0488223 -0.0831909)
(-0.0295336 0.0450177 -0.010917)
(0.0177321 0.013323 -0.0296663)
(-0.00457672 -0.0119847 0.00442359)
(-0.116476 0.438307 -0.21874)
(-0.1794 0.378931 -0.164649)
(-0.0101966 0.232053 -0.121439)
(-0.0892377 0.153381 -0.0875629)
(-0.0508541 0.0387218 -0.0382007)
(-0.0231864 -0.00615442 -0.0137034)
(-0.0662543 0.411172 -0.245937)
(-0.142763 0.375687 -0.170431)
(-0.0311527 0.191255 -0.152082)
(-0.0718751 0.207401 -0.0788988)
(-0.08115 0.254976 -0.112126)
(-0.0911469 0.269078 -0.110875)
(-0.0926762 0.364054 -0.241055)
(-0.129728 0.273203 -0.260391)
(-0.0873815 0.384632 -0.151857)
(-0.150431 0.303934 -0.283065)
(-0.151377 0.431414 -0.204651)
(-0.00876332 0.0537342 -0.087123)
(-0.0394112 0.0762463 -0.0313443)
(-0.0152709 -0.000168594 -0.0564685)
(-0.0421827 -0.0404674 -0.068474)
(-0.0110546 0.00641437 0.00757893)
(-0.0644782 0.108877 -0.050509)
(-0.0559555 0.142477 -0.0468346)
(-0.0415382 -0.0259165 -0.0597287)
(-0.0375605 0.034328 -0.00536423)
(-0.0522209 0.077608 -0.0327122)
(-0.0314598 -0.0255498 -0.0600459)
(-0.0557803 0.064703 0.0116072)
(0.00612796 0.0143241 -0.0227288)
(-0.0197963 -0.000868218 0.00947963)
(0.00256483 -0.00216163 -0.0219918)
(-0.0159217 -0.0157761 0.0120165)
(0.0173543 -0.0111947 -0.0224822)
(0.00280606 -0.0275609 0.0100969)
(0.00837855 -0.0324051 -0.016349)
(0.00237632 -0.0415235 0.0156912)
(-0.00730276 -0.00953073 -0.0244589)
(-0.0208745 -0.0223894 0.00891476)
(-0.0237912 -0.00802944 -0.0244832)
(-0.0299586 -0.0108703 0.0115327)
(-0.0276673 -0.0067498 0.0107395)
(-0.00792255 -0.0263551 -0.0181229)
(-0.0227331 -0.0493696 -0.0224827)
(-0.00183196 -0.0454965 0.0257524)
(-0.0196778 -0.0240472 0.00122583)
(-0.0198344 -0.00260545 0.00109618)
(-0.0127095 -0.0410316 0.011492)
(-0.0226255 -0.0324607 0.0155119)
(-0.0303952 0.0116283 0.0182994)
(-0.028201 0.0556922 0.00503879)
(-0.0351328 0.0288503 0.0282903)
(-0.0283781 -0.0148183 0.0278037)
(-0.0203591 0.011202 0.0180473)
(-0.0402431 -0.0319598 0.00714062)
(-0.043302 -0.00334949 0.0463972)
(-0.031726 -0.00464517 0.0239959)
(-0.0305428 -0.00428213 0.030257)
(-0.0213351 -0.0517779 -0.0122534)
(-0.0168809 -0.0464975 0.0252698)
(-0.030759 -0.0507118 -0.00641276)
(-0.0225885 -0.0401596 0.0319314)
(-0.0243334 0.0377931 0.0235096)
(-0.0440721 0.0188097 0.0390241)
(-0.0315646 0.00119522 0.0332058)
(-0.0118129 0.0135811 0.0254541)
(-0.0282159 -0.0175958 0.0213003)
(-0.0296422 0.00314752 0.0411108)
(-0.0312965 0.00893797 0.0141028)
(-0.0261588 -0.051185 -0.00601872)
(-0.0362976 -0.0244021 0.0454834)
(-0.0406824 0.0963739 -0.0919526)
(-0.0680763 0.0630825 -0.0746895)
(-0.0744168 0.0838796 -0.0783047)
(-0.0619714 0.139578 -0.112651)
(-0.0883146 0.113886 -0.0889486)
(-0.0506589 0.073092 -0.0818018)
(-0.0797895 0.0651422 -0.0555534)
(-0.0607079 0.0991265 -0.093541)
(-0.0852381 0.0864897 -0.0593088)
(-0.0731337 0.169341 -0.131802)
(-0.0953074 0.145279 -0.10555)
(-0.0820335 0.187478 -0.142549)
(-0.0990248 0.166208 -0.119584)
(-0.0672627 0.126794 -0.107952)
(-0.086356 0.112054 -0.0693016)
(-0.0713449 0.147897 -0.120828)
(-0.0902956 0.136864 -0.0829407)
(-0.0999787 0.184022 -0.145783)
(-0.0922966 0.194116 -0.150522)
(-0.114085 0.169565 -0.124189)
(-0.088472 0.179585 -0.156527)
(-0.0987872 0.195347 -0.127489)
(-0.0888401 0.153779 -0.12692)
(-0.0782119 0.166989 -0.123978)
(-0.077311 0.148709 -0.0820272)
(-0.10698 0.180569 -0.156002)
(-0.0955354 0.202016 -0.164073)
(-0.0782395 0.176092 -0.118979)
(-0.0562031 0.0615472 -0.0708023)
(-0.0729134 0.0477341 -0.0295771)
(-0.0642342 0.078557 -0.0767607)
(-0.0771556 0.0670273 -0.0342868)
(-0.047804 0.0357138 -0.0491695)
(-0.05686 0.0234509 -0.00661443)
(-0.0598142 0.0516399 -0.0543898)
(-0.055185 0.0467042 -0.0149108)
(-0.0611754 0.0495722 -0.0132677)
(-0.0677417 0.097854 -0.0857388)
(-0.0799247 0.0914674 -0.0448017)
(-0.0794993 0.114573 -0.0855278)
(-0.0739082 0.131705 -0.0830177)
(-0.0670325 0.107102 -0.0396033)
(-0.0789559 0.117658 -0.0590385)
(-0.0713044 0.0765502 -0.057063)
(-0.0689227 0.0870028 -0.0580896)
(-0.057181 0.0709503 -0.00764409)
(-0.0643808 0.0638201 -0.0278914)
(-0.0594182 0.07787 -0.0214356)
(-0.0695938 0.0953 -0.0542449)
(-0.0695243 0.109826 -0.0689531)
(-0.0565936 0.0877053 -0.00906096)
(-0.0574207 0.100935 -0.0472028)
(-0.0565032 0.105235 -0.0742502)
(-0.0662813 0.0886259 -0.0177193)
(-0.0405944 0.146912 -0.0680469)
(-0.0137193 0.103101 -0.0215468)
(-0.0144689 0.107088 -0.0343286)
(-0.0625396 0.125765 -0.0607581)
(-0.0313344 0.154405 -0.0889532)
(-0.0920084 0.168917 -0.094792)
(-0.0530666 0.158103 -0.0592247)
(-0.0571225 0.198869 -0.108787)
(-0.0960414 0.19262 -0.13582)
(-0.0566018 0.162639 -0.0634983)
(-0.0565819 0.161602 -0.0850279)
(-0.0874934 0.160924 -0.0851859)
(-0.0600556 0.151956 -0.0646605)
(-0.0509339 0.0620644 0.02019)
(-0.0203557 0.0773001 0.0089181)
(-0.00301148 0.0809861 -0.00685724)
(-0.0554894 0.0910157 -0.0179065)
(-0.0377246 0.0856266 0.0198351)
(-0.0049388 0.0440162 0.0201128)
(-0.0327646 0.0283175 0.00888704)
(-0.0358876 0.040021 0.048775)
(-0.0272187 0.0852457 -9.47313e-05)
(-0.0571585 0.0698044 -0.0215113)
(-0.0431942 0.0702057 0.0306764)
(-0.0647559 0.134571 -0.0473295)
(-0.0539144 0.14504 -0.0609517)
(-0.0812756 0.150024 -0.0999182)
(-0.0601815 0.139254 -0.0387505)
(-0.0697277 0.0924036 -0.0439226)
(-0.0587112 0.0791291 0.000889991)
(-0.0465135 0.0985357 -0.0242154)
(-0.0535159 0.087398 -0.0455919)
(-0.0508799 0.0819557 0.00718599)
(-0.0441836 0.14 -0.0397082)
(-0.0765036 0.125878 -0.0648352)
(-0.0530845 0.119341 -0.00949015)
(-0.0889892 0.156336 -0.099136)
(-0.0866838 0.147913 -0.111848)