/*--------------------------------*- C++ -*----------------------------------*\
| =========                 |                                                 |
| \\      /  F ield         | OpenFOAM: The Open Source CFD Toolbox           |
|  \\    /   O peration     | Version:  5.0                                   |
|   \\  /    A nd           | Web:      www.OpenFOAM.org                      |
|    \\/     M anipulation  |                                                 |
\*---------------------------------------------------------------------------*/
FoamFile
{
    version     2.0;
    format      ascii;
    class       volVectorField;
    location    "60";
    object      wallShearStressRest;
}
// * * * * * * * * * * * * * * * * * * * * * * * * * * * * * * * * * * * * * //

dimensions      [1 -1 -2 0 0 0 0];

internalField   uniform (0 0 0);

boundaryField
{
    Wall_Aorta
    {
        type            calculated;
        value           nonuniform List<vector> 
15036
(
(0.261766 0.0782689 -0.181952)
(0.246148 0.0527229 -0.172836)
(0.00343472 0.0131509 -0.0487885)
(0.00166221 0.0155314 -0.0493667)
(0.00288448 0.01747 -0.0545008)
(0.00210607 0.0166071 -0.054697)
(-0.00771901 0.0106587 -0.0477548)
(-0.00903935 0.0125211 -0.0471783)
(-0.00250391 0.0120612 -0.0538739)
(-0.00364789 0.0120888 -0.0529266)
(-0.0134862 0.0146609 -0.0431002)
(-0.0154701 0.0189822 -0.04342)
(0.700674 -0.0260059 -1.09546)
(0.473262 -0.0651337 -1.12622)
(1.27439 0.108803 -1.0839)
(1.17025 0.642761 -0.694958)
(0.841348 0.0541973 -1.21297)
(1.11025 0.43141 -0.904681)
(0.30545 0.0150105 -0.412612)
(0.315874 0.0850516 -0.473262)
(0.67219 0.278866 -0.30184)
(0.0453691 0.0420174 -0.0776362)
(0.608562 0.200556 -0.41449)
(0.0351709 0.0343852 -0.0765078)
(1.99012 0.823729 0.568292)
(2.14223 0.920226 0.436654)
(3.86524 1.73217 -1.52297)
(3.74728 1.37462 -1.76316)
(3.8869 1.2499 -2.00315)
(3.88952 1.21231 -2.17155)
(3.66291 1.37434 -3.07849)
(3.19774 2.12858 -3.27846)
(3.15002 1.83612 -2.89302)
(2.83408 2.17082 -3.11197)
(2.41548 1.33258 -2.16494)
(1.90928 0.7917 -1.95985)
(2.00439 0.877587 -1.936)
(-0.149618 0.573807 -1.89489)
(-0.133692 0.607204 -1.73358)
(0.240224 0.552374 -1.26853)
(0.381769 0.548116 -1.31393)
(0.336061 0.186905 -0.603935)
(0.329698 0.212376 -0.676611)
(-0.877516 4.3486 -5.2309)
(-0.6437 2.2832 -3.9138)
(-0.0855168 0.30531 -2.08316)
(-0.0221952 0.330525 -1.35371)
(-1.78472 1.10676 -1.52093)
(-1.88526 1.45562 -1.33296)
(-3.57712 4.69009 -2.80202)
(-3.21127 3.7436 -2.37963)
(1.04837 0.331223 -0.654729)
(1.0607 0.410846 -0.643288)
(1.64353 1.33054 -1.49536)
(1.42697 1.06819 -1.749)
(0.763996 1.17887 -1.86911)
(1.03203 1.00741 -1.59748)
(-0.0634455 0.239982 -0.326422)
(-0.0796914 0.238408 -0.170593)
(-0.0976553 0.224896 -0.193887)
(-0.0640318 0.245692 -0.314882)
(-0.240756 0.991841 -0.490287)
(-0.251307 0.774442 -0.458909)
(0.213043 0.282964 -0.159897)
(0.37919 0.344812 -0.221749)
(0.0411698 0.0770991 -0.0922998)
(0.0430778 0.0831064 -0.0797454)
(0.565921 2.20919 -1.32865)
(0.635833 2.41718 -1.22244)
(0.669916 0.220291 -0.368175)
(0.71768 0.27045 -0.395009)
(0.0482355 0.136405 -0.0357221)
(0.06002 0.110875 -0.0397068)
(2.64914 -2.43289 -1.8731)
(2.89122 -2.43674 -1.98822)
(2.57874 -2.60501 -1.81352)
(1.95756 -1.95323 -0.962394)
(1.94326 -1.82471 -1.15538)
(0.376133 -0.44359 -0.19455)
(0.402609 -0.437 -0.132362)
(0.394466 -0.375921 -0.0945065)
(1.00115 -0.27019 -0.0461558)
(0.315257 0.345682 -0.00533166)
(0.883773 0.0408043 -0.0393799)
(0.960671 0.0491636 -0.0125528)
(1.78452 0.603323 0.183202)
(1.68103 0.492109 0.277301)
(1.49605 0.426369 0.0150229)
(1.68201 0.557045 0.328153)
(1.49388 0.39779 0.0831248)
(-0.167951 0.127172 -0.198158)
(-0.172234 0.110623 -0.191162)
(0.0540223 0.0788747 -0.133336)
(0.0508066 0.0819495 -0.137545)
(0.00793977 0.0398978 -0.107673)
(0.0168703 0.0389327 -0.103366)
(1.27281 0.395665 0.00805615)
(0.551575 0.103173 -0.00471738)
(0.675663 0.14222 -0.0435147)
(0.653826 0.120481 0.00894247)
(0.497661 0.0720317 -0.0425314)
(0.706785 0.267229 -0.725589)
(0.60653 0.391297 -0.799676)
(0.745056 0.271926 -0.654797)
(0.697748 0.247669 -0.679613)
(-0.21331 0.961377 -1.04519)
(-0.0542971 1.05355 -1.18658)
(0.888095 0.149577 -0.559718)
(0.822657 0.152052 -0.480648)
(0.551364 0.0572683 -0.176556)
(0.540367 0.045808 -0.223046)
(-0.0408701 0.0781724 -0.061562)
(-0.0450582 0.0921542 -0.0876311)
(-0.0416553 0.082863 -0.0571883)
(-0.0397439 0.0947005 -0.0829577)
(-0.0347071 0.0857295 -0.0550274)
(-0.0289825 0.074222 -0.0582179)
(-0.0324322 0.09598 -0.073892)
(-0.0233047 0.0874957 -0.0518166)
(-0.147816 0.298953 -0.262276)
(-0.163386 0.302009 -0.26347)
(-0.105122 0.285003 -0.264209)
(-0.063807 0.178451 -0.142225)
(-0.0657385 0.205676 -0.180759)
(-0.0705117 0.185128 -0.141061)
(-0.0854203 0.176744 -0.138697)
(-0.076199 0.175789 -0.177599)
(-0.0790049 0.21182 -0.155801)
(-0.0798951 0.191653 -0.136817)
(-0.105508 0.196943 -0.177492)
(-0.0622335 0.20212 -0.159288)
(-0.0759723 0.163489 -0.118661)
(-0.0580391 0.16335 -0.115936)
(-0.065398 0.162215 -0.106376)
(-0.0603569 0.164019 -0.138325)
(-0.0547217 0.166465 -0.103556)
(-0.0505889 0.164944 -0.130483)
(-0.0483691 0.166243 -0.0991881)
(-0.0599605 0.125721 -0.0829459)
(-0.0605049 0.1437 -0.114767)
(-0.0557948 0.125884 -0.085836)
(-0.0542382 0.101783 -0.066329)
(-0.0664709 0.110279 -0.0756243)
(-0.0460433 0.0919296 -0.0616436)
(-0.0707025 0.155122 -0.102425)
(-0.0560824 0.134634 -0.0789638)
(-0.0787177 0.14244 -0.100416)
(-0.0524696 0.141475 -0.111485)
(-0.0477994 0.131667 -0.0813189)
(-0.0436347 0.141866 -0.10925)
(-0.0396137 0.129276 -0.0773745)
(-0.0712111 0.207837 -0.124269)
(-0.0922092 0.200443 -0.151915)
(-0.083494 0.211162 -0.134572)
(-0.109918 0.213855 -0.156428)
(-0.0639509 0.196987 -0.135296)
(-0.0978289 0.241337 -0.13817)
(-0.0665045 0.172908 -0.120811)
(-0.0788371 0.188695 -0.16447)
(-0.0639817 0.185905 -0.13551)
(-0.0611414 0.200467 -0.150149)
(-0.0757891 0.175285 -0.106721)
(-0.0972278 0.193718 -0.108957)
(-0.072124 0.162056 -0.101752)
(-0.0807952 0.161603 -0.0886864)
(-0.0698425 0.198599 -0.11453)
(-0.100145 0.217645 -0.122832)
(-0.0816662 0.180044 -0.0917456)
(-0.103958 0.194672 -0.157813)
(-0.105947 0.203886 -0.195465)
(-0.0984779 0.211185 -0.1723)
(-0.103519 0.191353 -0.164835)
(-0.116314 0.205313 -0.181998)
(-0.0904402 0.201305 -0.179722)
(-0.148648 0.251262 -0.236484)
(-0.0796373 0.210772 -0.140759)
(-0.114649 0.203239 -0.138462)
(-0.0728573 0.192901 -0.148975)
(-0.07218 0.237441 -0.161095)
(-0.108901 0.222668 -0.154923)
(-0.0949536 0.206347 -0.145377)
(-0.12089 0.190446 -0.171847)
(-0.0709288 0.196162 -0.158204)
(-0.107683 0.237784 -0.16506)
(-0.145664 0.272379 -0.219287)
(-0.169188 0.271037 -0.251196)
(-0.104757 0.250234 -0.219749)
(-0.0972564 0.234862 -0.199369)
(-0.152654 0.253309 -0.215342)
(-0.154127 0.324813 -0.249473)
(-0.101795 0.270562 -0.224525)
(-0.14858 0.285095 -0.22652)
(-0.0526207 0.249258 -0.155084)
(-0.0940014 0.243825 -0.156418)
(-0.0873778 0.237972 -0.167726)
(-0.105025 0.266643 -0.176513)
(-0.111852 0.258684 -0.192898)
(-0.100418 0.258197 -0.19668)
(-0.0991122 0.24643 -0.148665)
(-0.0944185 0.260665 -0.140715)
(-0.0931926 0.258619 -0.152133)
(-0.0903056 0.273499 -0.143239)
(-0.0667577 0.214104 -0.118157)
(-0.0970873 0.236093 -0.121662)
(-0.0831275 0.19419 -0.0926859)
(-0.0512364 0.224675 -0.110222)
(-0.0790126 0.255606 -0.123494)
(-0.0794977 0.21942 -0.126549)
(-0.0750687 0.195817 -0.0869015)
(-0.0854571 0.193251 -0.0977273)
(-0.075838 0.277093 -0.148685)
(-0.0956101 0.257595 -0.150639)
(-0.0753915 0.263394 -0.130751)
(-0.0874933 0.250106 -0.141282)
(-0.0923995 0.257509 -0.175957)
(-0.08308 0.243199 -0.155963)
(-0.0711372 0.24844 -0.135846)
(-0.0813846 0.233827 -0.118588)
(-0.0676891 0.211212 -0.107615)
(-0.0766005 0.202508 -0.0966103)
(-0.0753589 0.227311 -0.134573)
(-0.0553269 0.199509 -0.10717)
(-0.0626899 0.21373 -0.10493)
(-0.0620298 0.207917 -0.11188)
(-0.119552 0.344472 -0.308176)
(-0.140006 0.32701 -0.291721)
(-0.105311 0.367931 -0.337462)
(-0.131753 0.359767 -0.322211)
(-0.053889 0.369774 -0.351099)
(-0.0852901 0.387714 -0.336322)
(-0.0765014 0.340608 -0.377909)
(-0.141605 0.365144 -0.274636)
(-0.0744171 0.281788 -0.2279)
(-0.119892 0.320012 -0.237386)
(-0.110355 0.276753 -0.256061)
(-0.137935 0.353872 -0.304662)
(-0.129555 0.317845 -0.301601)
(-0.0922304 0.274619 -0.211952)
(-0.12192 0.257099 -0.21764)
(-0.0878515 0.268368 -0.192662)
(-0.114256 0.251144 -0.194843)
(-0.11941 0.272205 -0.253095)
(-0.112564 0.251107 -0.21865)
(-0.0958472 0.372395 -0.34209)
(-0.113461 0.331631 -0.347465)
(-0.10955 0.340864 -0.309485)
(-0.127054 0.315742 -0.322132)
(-0.113393 0.297972 -0.254643)
(-0.137516 0.306358 -0.281919)
(-0.118513 0.2418 -0.198959)
(-0.11693 0.250664 -0.213784)
(-0.101667 0.26133 -0.21338)
(-0.0852125 0.261943 -0.16955)
(-0.110482 0.243475 -0.173155)
(-0.0786164 0.240772 -0.141583)
(-0.0730725 0.234047 -0.150287)
(-0.0809682 0.246483 -0.160205)
(-0.0926687 0.214242 -0.168967)
(-0.0907448 0.226108 -0.161537)
(-0.096615 0.248071 -0.173217)
(-0.0736429 0.202115 -0.1089)
(-0.0713211 0.202518 -0.119742)
(-0.0721653 0.20702 -0.111917)
(-0.0719511 0.201361 -0.134905)
(-0.0817476 0.214486 -0.12768)
(-0.0180059 0.0445784 -0.0292014)
(-0.0255508 0.0418928 -0.0343407)
(-0.0168586 0.0469597 -0.0342342)
(-0.0185185 0.0406747 -0.0250615)
(-0.029052 0.0402525 -0.0266949)
(-0.0204812 0.0430448 -0.0296349)
(-0.0129412 0.0394142 -0.029101)
(-0.0218135 0.0342839 -0.0268109)
(-0.0152786 0.0420756 -0.0320571)
(-0.0153569 0.037653 -0.0222544)
(-0.0286876 0.0399988 -0.0287631)
(-0.010022 0.0316962 -0.024017)
(-0.0171847 0.0267346 -0.0225354)
(-0.024834 0.0378934 -0.0249881)
(-0.0341165 0.0426339 -0.0229748)
(-0.0262005 0.0387578 -0.0233786)
(-0.0202875 0.039563 -0.0242765)
(-0.0318135 0.04551 -0.0270661)
(-0.0267169 0.0407161 -0.0283888)
(-0.0202475 0.0369346 -0.0222208)
(-0.00985452 0.027512 -0.0216745)
(-0.0163378 0.0242123 -0.0189605)
(-0.0221079 0.0371459 -0.0236622)
(-0.00782469 0.0280143 -0.0214486)
(-0.0173208 0.0261629 -0.0204448)
(-0.0164002 0.027923 -0.0236838)
(-0.0252248 0.0464318 -0.023985)
(-0.0289322 0.048351 -0.032567)
(-0.0223362 0.0475065 -0.0245843)
(-0.0236289 0.0430452 -0.0227126)
(-0.0211633 0.0411505 -0.0285778)
(-0.0228979 0.0436395 -0.0234303)
(-0.022121 0.0384291 -0.0263726)
(-0.0231096 0.0432898 -0.0217493)
(-0.0233383 0.0510521 -0.0272246)
(-0.0232457 0.0515277 -0.0264879)
(-0.0230496 0.0473258 -0.0281528)
(-0.0230499 0.0471353 -0.0340198)
(-0.0233164 0.0494346 -0.0309068)
(-0.0205492 0.0493188 -0.031442)
(-0.025555 0.0490759 -0.0392955)
(-0.0191944 0.0531206 -0.0341073)
(-0.0210963 0.0552654 -0.0349646)
(-0.0232934 0.0465007 -0.0266377)
(-0.0301657 0.0453171 -0.0332942)
(-0.020211 0.0462876 -0.0292525)
(-0.0246157 0.0475439 -0.031061)
(-0.0247955 0.0507318 -0.0280083)
(-0.0236059 0.0482984 -0.0300842)
(-0.0258412 0.0515963 -0.0266133)
(-0.0231676 0.0574015 -0.0339566)
(-0.024884 0.0575515 -0.0323987)
(-0.0211028 0.0374946 -0.02639)
(-0.0235949 0.0436644 -0.0210715)
(-0.0201598 0.0374847 -0.0222148)
(-0.0208877 0.0382531 -0.0251609)
(-0.0216959 0.0444582 -0.0183438)
(-0.0237313 0.0525086 -0.0258301)
(-0.023154 0.0462182 -0.0270753)
(-0.0211913 0.0406893 -0.0249413)
(-0.0192402 0.0422298 -0.0243307)
(-0.0231457 0.0441277 -0.0186951)
(-0.0230739 0.045597 -0.0242218)
(-0.0236167 0.0489186 -0.0271165)
(-0.0241576 0.0515069 -0.0220791)
(-0.0261415 0.056945 -0.032407)
(-0.0256764 0.0476242 -0.0283021)
(-0.0229889 0.0506453 -0.0268884)
(-0.0242116 0.0511302 -0.0243893)
(-0.0265659 0.0510997 -0.026303)
(-0.021685 0.045568 -0.0289565)
(-0.0210571 0.0480735 -0.0249538)
(-0.0215069 0.0473258 -0.0308319)
(-0.0264344 0.04884 -0.0263095)
(-0.0238449 0.0426467 -0.0208393)
(-0.026018 0.0323467 -0.0193466)
(-0.019291 0.0364092 -0.0203313)
(-0.0210994 0.0351408 -0.0178127)
(-0.0189474 0.0299902 -0.0241008)
(-0.0193439 0.0385094 -0.0198416)
(-0.0244799 0.0324854 -0.0259063)
(-0.0203047 0.0375809 -0.0177252)
(-0.0222878 0.0345244 -0.0196621)
(-0.0215869 0.0260065 -0.0213285)
(-0.0201369 0.0343525 -0.0218078)
(-0.0283391 0.028862 -0.0280875)
(-0.0209669 0.0355778 -0.0211004)
(-0.0242309 0.0358897 -0.0250071)
(-0.0359919 0.0369337 -0.0377638)
(-0.0242177 0.0355351 -0.0237492)
(-0.0406258 0.059011 -0.0420929)
(-0.0434357 0.0581307 -0.0480719)
(-0.0356566 0.0526309 -0.0385756)
(-0.0281033 0.0440952 -0.029853)
(-0.0420287 0.0408947 -0.0322213)
(-0.0269503 0.037061 -0.0251831)
(-0.022128 0.0435327 -0.0235206)
(-0.0278649 0.0346464 -0.0261416)
(-0.024278 0.0387421 -0.0252447)
(-0.0346256 0.0348195 -0.0237329)
(-0.024475 0.0347059 -0.0224981)
(-0.0291743 0.0483787 -0.024674)
(-0.0212668 0.0364695 -0.0220968)
(-0.0281555 0.0291305 -0.0290449)
(-0.0248395 0.0329149 -0.0264302)
(-0.025679 0.0324922 -0.0371009)
(-0.0248447 0.0374415 -0.0252805)
(-0.0250557 0.034553 -0.0368602)
(-0.0231224 0.0398954 -0.0249915)
(-0.0186551 0.0321856 -0.0290126)
(-0.021189 0.0359778 -0.0359035)
(-0.0181256 0.0340896 -0.0221834)
(-0.0216419 0.0313217 -0.0236793)
(-0.0207438 0.0307982 -0.0314358)
(-0.0220481 0.0327801 -0.0214992)
(-0.0195115 0.0325619 -0.0239137)
(-0.0209363 0.0327578 -0.028581)
(-0.0185258 0.0343911 -0.0178107)
(-0.0207339 0.0397303 -0.0232467)
(-0.0209564 0.0400432 -0.0238207)
(-0.0189575 0.0319966 -0.0234648)
(-0.0171348 0.0346619 -0.0247645)
(-0.0171259 0.0339196 -0.0170299)
(-0.0216858 0.0392198 -0.0292198)
(-0.0143836 0.0304305 -0.0279671)
(-0.0146031 0.032175 -0.0288056)
(-0.0128769 0.031831 -0.020311)
(-0.0108656 0.0357716 -0.0294581)
(-0.0195163 0.0422216 -0.0271627)
(-0.0338068 0.0465569 -0.0372091)
(-0.0362331 0.050747 -0.0456029)
(-0.0320807 0.0486336 -0.0357979)
(-0.0366285 0.0568742 -0.0589744)
(-0.0301356 0.0540873 -0.0370635)
(-0.047417 0.0703866 -0.061963)
(-0.0298329 0.0577645 -0.0584597)
(-0.0258249 0.0547512 -0.0368472)
(-0.0226977 0.0485406 -0.0457907)
(-0.0244925 0.0617799 -0.0573722)
(-0.0195645 0.0489146 -0.034983)
(-0.0206308 0.045251 -0.0341936)
(-0.026351 0.0453377 -0.0211597)
(-0.0283285 0.0399227 -0.0271034)
(-0.0223045 0.0451141 -0.0247694)
(-0.0277361 0.0478 -0.0251355)
(-0.033575 0.0475749 -0.0296567)
(-0.0240775 0.0472753 -0.0279556)
(-0.0290913 0.0441017 -0.0251666)
(-0.0326627 0.043888 -0.0207727)
(-0.024492 0.0424153 -0.0213709)
(-0.0297573 0.0476048 -0.0237796)
(-0.0270842 0.0507168 -0.0252898)
(-0.0321527 0.0445183 -0.0250181)
(-0.0271748 0.0526927 -0.0270081)
(-0.0329574 0.0454945 -0.0262634)
(-0.0231051 0.0426964 -0.0241585)
(-0.0179375 0.0369183 -0.0272569)
(-0.0166807 0.0386385 -0.026768)
(-0.0167911 0.0375023 -0.0184707)
(-0.0155131 0.0422688 -0.0301863)
(-0.0217956 0.0428798 -0.0232258)
(-0.0178246 0.0445957 -0.0252137)
(-0.0236538 0.0446086 -0.0262954)
(-0.0183985 0.0467389 -0.0280834)
(-0.0251219 0.0467472 -0.0278985)
(-0.0189036 0.0470005 -0.0327361)
(-0.0203566 0.045081 -0.0331221)
(-0.0244907 0.0504877 -0.0467847)
(-0.0209168 0.0531644 -0.0421337)
(-0.0226764 0.0546253 -0.0449998)
(-0.031169 0.0539103 -0.047637)
(-0.0199802 0.0562555 -0.0400456)
(-0.0249873 0.0495486 -0.0441862)
(-0.0268561 0.0450271 -0.0437758)
(-0.0215745 0.0472643 -0.0472783)
(-0.0193458 0.0525816 -0.0466573)
(-0.0255845 0.0502213 -0.05034)
(-0.0232796 0.0497911 -0.0418692)
(-0.0243565 0.0503874 -0.0493601)
(-0.0233618 0.0517081 -0.0472698)
(-0.0313151 0.0502242 -0.0491139)
(-0.0231681 0.0563485 -0.0434703)
(-0.0232254 0.0516193 -0.0447449)
(-0.0190995 0.0499908 -0.0355085)
(-0.0254633 0.0504508 -0.0424762)
(-0.0177127 0.0537654 -0.0394975)
(-0.0176815 0.0551695 -0.0413126)
(-0.0259954 0.0560053 -0.0474609)
(-0.0157789 0.0458321 -0.0340204)
(-0.0237184 0.0472008 -0.035739)
(-0.016129 0.0477103 -0.0357986)
(-0.0215825 0.0572579 -0.042047)
(-0.0210211 0.0487231 -0.0432551)
(-0.0265983 0.0495162 -0.0423965)
(-0.0213158 0.0482375 -0.0456263)
(-0.0255205 0.0567915 -0.0466874)
(-0.0181461 0.051858 -0.0452047)
(-0.0245577 0.0538228 -0.0454012)
(-0.0239585 0.0568463 -0.045725)
(-0.0216626 0.0394351 -0.0501579)
(-0.0283874 0.03687 -0.0505998)
(-0.0148973 0.032302 -0.0468103)
(-0.0245069 0.0342837 -0.0462038)
(-0.0225039 0.0316708 -0.0491624)
(-0.0225547 0.0350359 -0.0498938)
(-0.0281432 0.0401217 -0.0493029)
(-0.0248261 0.0383424 -0.0513372)
(-0.0155967 0.0389857 -0.0467325)
(-0.025355 0.0432544 -0.0470382)
(-0.024128 0.0387338 -0.0494681)
(-0.0262248 0.0351274 -0.0448829)
(-0.0162059 0.0359851 -0.0443243)
(-0.0230305 0.0393523 -0.0434865)
(-0.0263506 0.0373048 -0.0455088)
(-0.0274192 0.0445321 -0.0504481)
(-0.0344287 0.0498977 -0.0503123)
(-0.0255543 0.0448503 -0.0516977)
(-0.0283722 0.0466789 -0.0509181)
(-0.0238952 0.0484552 -0.0517937)
(-0.0300695 0.0517101 -0.0506151)
(-0.0272427 0.0485088 -0.0505544)
(-0.0220064 0.0503153 -0.0511187)
(-0.0283429 0.052512 -0.0501099)
(-0.0272089 0.0509536 -0.0497189)
(-0.0200023 0.0505544 -0.0503473)
(-0.0262967 0.0523339 -0.0472983)
(-0.0268611 0.0457889 -0.0494047)
(-0.0264173 0.0469823 -0.0536883)
(-0.0176403 0.0482567 -0.0349659)
(-0.0197237 0.0553867 -0.0403395)
(-0.0163692 0.0452157 -0.0322505)
(-0.0179305 0.0537419 -0.0375312)
(-0.017237 0.0539594 -0.0452957)
(-0.0239792 0.0558966 -0.0451868)
(-0.0231413 0.0574983 -0.044086)
(-0.0163186 0.0553766 -0.0466881)
(-0.022024 0.0549179 -0.0419966)
(-0.0230751 0.0535017 -0.0445637)
(-0.0155041 0.041697 -0.0293632)
(-0.0165856 0.0517665 -0.0347752)
(-0.0164043 0.0401289 -0.0291764)
(-0.0171283 0.0449629 -0.0320396)
(-0.0112415 0.0529124 -0.04174)
(-0.0174367 0.0535106 -0.0384935)
(-0.0183155 0.0492703 -0.0400214)
(-0.0180291 0.0553648 -0.0431977)
(-0.0228272 0.0513099 -0.0403416)
(-0.0182731 0.0479815 -0.0400148)
(-0.0205637 0.0485643 -0.0408443)
(-0.0145485 0.0496122 -0.0455659)
(-0.0225375 0.0537734 -0.0449153)
(-0.022442 0.0483036 -0.0466992)
(-0.0203946 0.0488431 -0.0462738)
(-0.0262021 0.0459061 -0.0441781)
(-0.0233205 0.0505687 -0.0494782)
(-0.0244858 0.0470343 -0.047604)
(-0.0231821 0.0447295 -0.0443624)
(-0.0270662 0.0450802 -0.0446658)
(-0.0225233 0.0419481 -0.048899)
(-0.0278569 0.0426819 -0.0413091)
(-0.0253219 0.0446147 -0.0466725)
(-0.0263456 0.0425967 -0.045495)
(-0.0193268 0.0513897 -0.0420362)
(-0.0248946 0.0505259 -0.0406305)
(-0.0209618 0.0477265 -0.0407536)
(-0.0268196 0.0474781 -0.0402314)
(-0.0226595 0.0479386 -0.0425152)
(-0.0192963 0.0463206 -0.0409202)
(-0.0254722 0.0483797 -0.0374962)
(-0.0211178 0.0449896 -0.0388692)
(-0.0266218 0.0454391 -0.0387992)
(-0.0241223 0.0412065 -0.0367675)
(-0.0219612 0.0411925 -0.0371835)
(-0.0291933 0.0412716 -0.0356033)
(-0.0212083 0.0457795 -0.0411864)
(-0.0240557 0.0457453 -0.0368812)
(-0.0249447 0.0414163 -0.038768)
(-0.022897 0.0445183 -0.0392982)
(-0.0213072 0.0435258 -0.0321813)
(-0.0214492 0.0435575 -0.0414715)
(-0.0245787 0.0483792 -0.0345222)
(-0.0247196 0.0510221 -0.0400484)
(-0.0240206 0.0550707 -0.0485954)
(-0.0250922 0.0591696 -0.0421529)
(-0.0244169 0.0542161 -0.0436768)
(-0.0245789 0.0602377 -0.036916)
(-0.0207329 0.0507042 -0.0358881)
(-0.0208657 0.0501728 -0.0417333)
(-0.0218698 0.0578969 -0.0386529)
(-0.0226932 0.0491237 -0.0376047)
(-0.0223197 0.0582289 -0.0342217)
(-0.0237983 0.0545543 -0.0420734)
(-0.0245161 0.0502547 -0.0369414)
(-0.0245333 0.0460226 -0.0327413)
(-0.0235432 0.0529885 -0.037313)
(-0.0236374 0.0500857 -0.0300357)
(-0.0232648 0.0507068 -0.0367463)
(-0.0224878 0.0574624 -0.0326285)
(-0.0231829 0.0516018 -0.0353771)
(-0.0238769 0.0575666 -0.0311302)
(-0.0290171 0.0566293 -0.0411342)
(-0.0250745 0.0531968 -0.0389853)
(-0.0259942 0.0474989 -0.0313765)
(-0.0242852 0.0533086 -0.0323308)
(-0.0216397 0.0495196 -0.027684)
(-0.0215421 0.04564 -0.0341091)
(-0.027705 0.0574227 -0.0358724)
(-0.0240383 0.043555 -0.0347896)
(-0.0219317 0.0491246 -0.0350844)
(-0.0227663 0.0451803 -0.0292369)
(-0.0209959 0.0450533 -0.0377547)
(-0.0285432 0.048417 -0.0356777)
(-0.0240908 0.047261 -0.0319169)
(-0.022726 0.0492599 -0.0330557)
(-0.0305371 0.0489724 -0.0349856)
(-0.0204537 0.0482743 -0.0357335)
(-0.0268879 0.0466394 -0.0364224)
(-0.0235386 0.0500681 -0.0333892)
(-0.0276312 0.0530699 -0.0309543)
(-0.021697 0.0489831 -0.0345629)
(-0.0278986 0.0519173 -0.0317309)
(-0.0212474 0.0479012 -0.0321449)
(-0.0262152 0.0484224 -0.0284641)
(-0.0211171 0.0496315 -0.0351785)
(-0.0268666 0.0494649 -0.0310453)
(-0.0255945 0.0492143 -0.0369963)
(-0.0233033 0.0482932 -0.0395535)
(-0.0216435 0.0526877 -0.0322746)
(-0.0263083 0.0513444 -0.033721)
(-0.0145423 0.0515227 -0.0364809)
(-0.0216786 0.0527095 -0.0352763)
(-0.0221982 0.0489648 -0.0367458)
(-0.0217364 0.0467304 -0.0409374)
(-0.0293874 0.0485882 -0.0388479)
(-0.0214593 0.0483319 -0.0455908)
(-0.0286078 0.0478506 -0.0414839)
(-0.0199895 0.0478288 -0.0376667)
(-0.0273618 0.0461815 -0.038)
(-0.0158878 0.04849 -0.0414786)
(-0.0224579 0.0503146 -0.0402645)
(-0.0244949 0.0466925 -0.0424448)
(-0.0209745 0.0465397 -0.041277)
(-0.0266747 0.0462699 -0.0436406)
(-0.0182285 0.0477909 -0.0451981)
(-0.02529 0.0438714 -0.0449871)
(-0.0225953 0.0497733 -0.0472292)
(-0.0231852 0.0459262 -0.0446082)
(-0.022999 0.0465218 -0.0345863)
(-0.0227366 0.0491681 -0.0393597)
(-0.022723 0.0525072 -0.0396317)
(-0.02269 0.0477372 -0.0371261)
(-0.013353 0.0497969 -0.0404903)
(-0.0208777 0.0477077 -0.0398878)
(-0.0204456 0.0457705 -0.0433976)
(-0.020709 0.051142 -0.0417339)
(-0.0172968 0.0496378 -0.0410986)
(-0.023591 0.0467171 -0.0400027)
(-0.0203198 0.0490626 -0.0401323)
(-0.0191165 0.0494029 -0.0294743)
(-0.0261413 0.0469523 -0.0295604)
(-0.0140419 0.0458203 -0.0293493)
(-0.0235369 0.0510656 -0.0315352)
(-0.0238442 0.0461799 -0.033272)
(-0.0220451 0.0487829 -0.0293806)
(-0.0170573 0.0497077 -0.034323)
(-0.0276891 0.0529972 -0.0314067)
(-0.025939 0.0569027 -0.0339682)
(-0.024812 0.0533686 -0.0380278)
(-0.0257388 0.0563521 -0.0374419)
(-0.0255823 0.0525255 -0.034981)
(-0.0199624 0.0539247 -0.0321761)
(-0.0241756 0.0501589 -0.0300334)
(-0.0225246 0.0560251 -0.0304554)
(-0.0138849 0.0510688 -0.0311056)
(-0.0248258 0.0523847 -0.0337012)
(-0.0216307 0.0494662 -0.0366274)
(-0.0256686 0.0593584 -0.033685)
(-0.018509 0.0486494 -0.0313435)
(-0.0281355 0.0503075 -0.0323647)
(-0.0262982 0.0560017 -0.0329085)
(-0.0241733 0.0483432 -0.0389309)
(-0.0231829 0.0377973 -0.0381085)
(-0.0139754 0.042366 -0.0332428)
(-0.0223056 0.0547841 -0.0369527)
(-0.0226658 0.0533473 -0.0368325)
(-0.0133253 0.0512195 -0.0356619)
(-0.0224207 0.0510903 -0.0366482)
(-0.0202746 0.0484309 -0.0387627)
(-0.0186228 0.0522793 -0.0370149)
(-0.0256198 0.0504786 -0.0366381)
(-0.0170054 0.0486662 -0.0396451)
(-0.0232938 0.047072 -0.0408997)
(-0.0200468 0.0484098 -0.0394905)
(-0.016824 0.0466428 -0.0378133)
(-0.0223402 0.0441658 -0.0390018)
(-0.0191467 0.0465144 -0.038061)
(-0.0222191 0.0532231 -0.0364271)
(-0.0161452 0.0497224 -0.0339863)
(-0.0219847 0.046215 -0.0389401)
(-0.0193027 0.0516867 -0.0362213)
(-0.0260716 0.0510427 -0.0376746)
(-0.0217036 0.0497649 -0.0338319)
(-0.0274511 0.0493247 -0.0336509)
(-0.0213415 0.0470777 -0.0337226)
(-0.0177954 0.0441137 -0.0344974)
(-0.0217393 0.0397307 -0.0329462)
(-0.0164595 0.040883 -0.0345793)
(-0.0138882 0.0422055 -0.0333933)
(-0.0216606 0.0405795 -0.0398041)
(-0.0170855 0.0421917 -0.0334791)
(-0.0169539 0.0377941 -0.0335889)
(-0.0151248 0.0355853 -0.0311101)
(-0.0156094 0.0408763 -0.0341511)
(-0.0196174 0.0327582 -0.0246156)
(-0.0302168 0.0403027 -0.0246089)
(-0.0190289 0.0340623 -0.0265142)
(-0.0169978 0.0339503 -0.0238111)
(-0.0284657 0.0406878 -0.0259188)
(-0.0269864 0.0370515 -0.0290186)
(-0.0190152 0.0325724 -0.0208903)
(-0.0265121 0.0342459 -0.0246571)
(-0.0436647 0.0780371 -0.0513437)
(-0.0598133 0.0794546 -0.058331)
(-0.0303882 0.0543226 -0.0362984)
(-0.047109 0.0533962 -0.0412404)
(-0.0468384 0.0944877 -0.0568398)
(-0.0676458 0.0988716 -0.0646615)
(-0.0344906 0.0643665 -0.0390813)
(-0.0538539 0.0643413 -0.0444792)
(-0.0260685 0.0438611 -0.0298032)
(-0.0372618 0.0412969 -0.0292826)
(-0.0301801 0.0518828 -0.028293)
(-0.0217991 0.0478254 -0.0285843)
(-0.0381636 0.0467345 -0.0317944)
(-0.0333899 0.0474317 -0.0326831)
(-0.0319636 0.054102 -0.0290033)
(-0.0495173 0.107424 -0.0570451)
(-0.0741347 0.117445 -0.0688616)
(-0.0310342 0.0648322 -0.0405281)
(-0.0556445 0.0775029 -0.0475792)
(-0.0470997 0.0719098 -0.0487834)
(-0.053856 0.104664 -0.0601297)
(-0.0774817 0.136071 -0.0700663)
(-0.0512172 0.0906634 -0.0531573)
(-0.02264 0.0504093 -0.0277751)
(-0.0367158 0.0506769 -0.0291824)
(-0.031611 0.0481393 -0.0297677)
(-0.037665 0.059896 -0.0370661)
(-0.0306609 0.0566245 -0.0328387)
(-0.0488192 0.0650709 -0.037952)
(-0.0334809 0.0557192 -0.0322197)
(-0.0281981 0.0455788 -0.0282199)
(-0.0332288 0.0473098 -0.0267494)
(-0.0314557 0.0500777 -0.0316856)
(-0.0211404 0.0467714 -0.0274493)
(-0.0315098 0.04762 -0.0273213)
(-0.0278845 0.044039 -0.028462)
(-0.0314541 0.0485925 -0.0277978)
(-0.0301793 0.0512867 -0.0311547)
(-0.0203622 0.0423334 -0.0254134)
(-0.0283635 0.0449517 -0.0254897)
(-0.0268097 0.0394959 -0.026439)
(-0.0206841 0.0453342 -0.0235158)
(-0.0304475 0.0491057 -0.0257255)
(-0.0290146 0.0424026 -0.025038)
(-0.0241005 0.04292 -0.0268087)
(-0.0290578 0.0398726 -0.0201766)
(-0.024322 0.0413052 -0.0295233)
(-0.0280394 0.0379147 -0.0224795)
(-0.0231791 0.0385229 -0.0276553)
(-0.0272249 0.037475 -0.0221095)
(-0.0224986 0.0392598 -0.0247217)
(-0.0268197 0.0376405 -0.0183795)
(-0.0224711 0.0381082 -0.0249055)
(-0.0254439 0.0366723 -0.0180099)
(-0.0166704 0.0513321 -0.0183066)
(-0.0460004 0.120077 -0.0602298)
(-0.0735253 0.150585 -0.0718768)
(-0.0697744 0.123619 -0.069956)
(-0.0484232 0.0960491 -0.0414428)
(-0.0590855 0.0864502 -0.0467681)
(-0.0279417 0.0590126 -0.031392)
(-0.0473621 0.0645053 -0.033199)
(-0.0426642 0.0596042 -0.0319901)
(-0.0306666 0.0539508 -0.0231062)
(-0.0371927 0.0514857 -0.0238099)
(-0.0325111 0.0685524 -0.0399698)
(-0.0456684 0.0758355 -0.0386193)
(-0.0360609 0.0661224 -0.0303039)
(-0.031436 0.0564215 -0.0287104)
(-0.0318783 0.0575047 -0.0197349)
(-0.0645145 0.154467 -0.0775731)
(-0.0747595 0.155416 -0.0702779)
(-0.0485558 0.113295 -0.0542921)
(-0.0569573 0.104028 -0.0439945)
(-0.0463263 0.0758887 -0.0338904)
(-0.0367427 0.0633661 -0.0237167)
(-0.0592643 0.167349 -0.0816617)
(-0.0706505 0.16844 -0.0728876)
(-0.0514937 0.122098 -0.0561537)
(-0.0466349 0.131222 -0.0470966)
(-0.0473223 0.145443 -0.0565923)
(-0.0434916 0.143388 -0.0597375)
(-0.0588952 0.155254 -0.074953)
(-0.0543703 0.156188 -0.0724409)
(-0.0513158 0.163196 -0.0637411)
(-0.0540546 0.158214 -0.0872002)
(-0.0621416 0.174627 -0.0819609)
(-0.0386114 0.089595 -0.0389271)
(-0.0413493 0.102494 -0.0322978)
(-0.0340057 0.0668726 -0.0248866)
(-0.0318527 0.0667885 -0.0259048)
(-0.0299454 0.0771916 -0.0140994)
(-0.0410369 0.109744 -0.0409831)
(-0.0327694 0.114253 -0.04648)
(-0.0281829 0.0704879 -0.0311817)
(-0.0313542 0.0861848 -0.0229932)
(-0.0227622 0.0819423 -0.0285899)
(-0.0197103 0.0722931 -0.0352682)
(-0.0258121 0.0928728 -0.0281037)
(-0.0263949 0.0464423 -0.0261893)
(-0.0322941 0.0452606 -0.0187378)
(-0.0236509 0.0419486 -0.0231044)
(-0.0282916 0.0412695 -0.0164325)
(-0.0270213 0.0481415 -0.0239542)
(-0.0274571 0.0490022 -0.0150529)
(-0.024051 0.0420609 -0.0207505)
(-0.0235597 0.0441783 -0.0134866)
(-0.0218811 0.0379624 -0.0215406)
(-0.0258066 0.0381405 -0.0144107)
(-0.021784 0.0357741 -0.0207783)
(-0.020175 0.0367832 -0.0141366)
(-0.0211732 0.0406394 -0.0151972)
(-0.0238516 0.0375897 -0.0169418)
(-0.0214509 0.038113 -0.0169947)
(-0.0210858 0.0389953 -0.00771105)
(-0.0272999 0.0532136 -0.0181247)
(-0.0257427 0.0638508 -0.0183765)
(-0.0247903 0.0477645 -0.0157419)
(-0.0228616 0.0513852 -0.016084)
(-0.0244407 0.0653309 -0.0189935)
(-0.0215839 0.0715305 -0.0218823)
(-0.0205969 0.0700832 -0.0220213)
(-0.0207329 0.0549903 -0.0178035)
(-0.013455 0.0570695 -0.0202995)
(-0.0228654 0.0604655 -0.0262847)
(-0.0176622 0.0553039 -0.0138625)
(-0.019083 0.0410277 -0.0139012)
(-0.0174819 0.0426742 -0.01389)
(-0.0199697 0.0388579 -0.0186327)
(-0.0223287 0.0422456 -0.0102264)
(-0.0202249 0.0407665 -0.0186469)
(-0.0199292 0.0454627 -0.0103169)
(-0.0179867 0.0549671 -0.0172874)
(-0.0172875 0.055868 -0.0198721)
(-0.0162146 0.0457885 -0.01526)
(-0.0119433 0.0448219 -0.01661)
(-0.0195279 0.0414352 -0.0193111)
(-0.016177 0.043185 -0.0122375)
(-0.0182993 0.0494236 -0.0150489)
(-0.0173581 0.0437209 -0.0197623)
(-0.0189531 0.0497467 -0.0124908)
(-0.00993966 0.035177 -0.0265564)
(-0.0181004 0.0319673 -0.0223805)
(-0.0189809 0.0329501 -0.0254931)
(-0.0140912 0.0425653 -0.0293501)
(-0.0211264 0.0383903 -0.026779)
(-0.0164765 0.0336697 -0.0263844)
(-0.0242153 0.0341655 -0.0232161)
(-0.0163584 0.0369474 -0.0279072)
(-0.023073 0.0362668 -0.0231992)
(-0.0154257 0.0453849 -0.0322297)
(-0.0216586 0.0422736 -0.0294387)
(-0.0168555 0.0466217 -0.0336061)
(-0.0220863 0.0440005 -0.0313656)
(-0.0162584 0.0396492 -0.0299459)
(-0.0216491 0.0385213 -0.0243037)
(-0.0165153 0.0411946 -0.0316162)
(-0.0217336 0.0407567 -0.0256671)
(-0.020712 0.0436633 -0.0333301)
(-0.0192374 0.0456676 -0.0347562)
(-0.0250722 0.0421059 -0.0312567)
(-0.0182664 0.0415182 -0.0360579)
(-0.022404 0.047141 -0.0324549)
(-0.0200121 0.039024 -0.0315841)
(-0.017327 0.0415376 -0.0310992)
(-0.017837 0.0394746 -0.0240804)
(-0.022859 0.0409325 -0.0358203)
(-0.0209933 0.0454609 -0.0376306)
(-0.0174938 0.0407537 -0.0292417)
(-0.0210627 0.036576 -0.0267667)
(-0.0253594 0.0362624 -0.0208564)
(-0.0197349 0.0364656 -0.0266095)
(-0.0237485 0.0362709 -0.020678)
(-0.0211837 0.0364313 -0.0240398)
(-0.0244243 0.0365483 -0.0173712)
(-0.0207213 0.0352761 -0.0234233)
(-0.0181448 0.0359432 -0.0175939)
(-0.0229997 0.0395096 -0.018928)
(-0.0183295 0.0370747 -0.0271673)
(-0.0222602 0.0379342 -0.0210341)
(-0.0201656 0.0357947 -0.0250409)
(-0.0173134 0.0395629 -0.0243478)
(-0.0174835 0.0358335 -0.0180089)
(-0.0217338 0.0408472 -0.0234484)
(-0.021073 0.0347798 -0.0218666)
(-0.0175078 0.0371212 -0.0221194)
(-0.0192307 0.0354209 -0.0138011)
(-0.0187409 0.0353986 -0.0206734)
(-0.0184525 0.0415103 -0.0205108)
(-0.0182002 0.0334645 -0.0198778)
(-0.0186248 0.0385868 -0.023864)
(-0.0169566 0.0361098 -0.0145145)
(-0.0176425 0.0348904 -0.0209775)
(-0.0162147 0.0379106 -0.0263066)
(-0.018266 0.0352979 -0.0172381)
(-0.0224458 0.0548292 -0.028905)
(-0.018208 0.0515349 -0.0240441)
(-0.0162086 0.0454375 -0.0270487)