/*--------------------------------*- C++ -*----------------------------------*\
| =========                 |                                                 |
| \\      /  F ield         | OpenFOAM: The Open Source CFD Toolbox           |
|  \\    /   O peration     | Version:  5.0                                   |
|   \\  /    A nd           | Web:      www.OpenFOAM.org                      |
|    \\/     M anipulation  |                                                 |
\*---------------------------------------------------------------------------*/
FoamFile
{
    version     2.0;
    format      ascii;
    class       volScalarField;
    location    "60";
    object      FFRRest;
}
// * * * * * * * * * * * * * * * * * * * * * * * * * * * * * * * * * * * * * //

dimensions      [0 0 0 0 0 0 0];

internalField   nonuniform List<scalar> 
289420
(
0.991896
0.991888
0.991889
0.9919
0.991888
0.991872
0.991848
0.991815
0.991807
0.991849
0.991848
0.991856
0.991872
0.991891
0.991886
0.991886
0.991907
0.991904
0.991911
0.991905
0.991905
0.991904
0.991914
0.991907
0.991906
0.991903
0.991878
0.991856
0.991813
0.991768
0.991719
0.991682
0.991717
0.991784
0.991758
0.991783
0.991845
0.991869
0.991872
0.99188
0.991873
0.991887
0.991899
0.991909
0.991916
0.99192
0.99192
0.99192
0.991917
0.991917
0.991918
0.991913
0.991918
0.991911
0.991916
0.991916
0.991915
0.991914
0.991911
0.991913
0.991908
0.991907
0.991907
0.991898
0.991859
0.99184
0.991759
0.991697
0.991626
0.991569
0.99155
0.991658
0.991658
0.991761
0.991792
0.991849
0.991867
0.991896
0.991897
0.9919
0.991901
0.991915
0.991913
0.991917
0.991905
0.991904
0.99191
0.991919
0.991924
0.991926
0.991926
0.991923
0.991922
0.991927
0.991917
0.991924
0.991924
0.991924
0.99192
0.991912
0.991917
0.991919
0.99192
0.991935
0.991933
0.991932
0.99193
0.991927
0.991919
0.991935
0.991932
0.991938
0.991941
0.991945
0.991936
0.99193
0.991927
0.991925
0.991939
0.991934
0.991931
0.991929
0.99192
0.991928
0.991922
0.991918
0.991913
0.991912
0.991911
0.991913
0.991911
0.991913
0.991913
0.991914
0.991911
0.991912
0.991913
0.991913
0.991914
0.991912
0.991914
0.991913
0.991913
0.991912
0.991912
0.991912
0.991913
0.991913
0.991913
0.991913
0.991913
0.991913
0.991912
0.991913
0.991913
0.991913
0.991913
0.991912
0.991912
0.991912
0.991912
0.991912
0.991912
0.991913
0.991913
0.991913
0.991913
0.991913
0.991913
0.991913
0.991913
0.991913
0.991913
0.991913
0.991913
0.991913
0.991913
0.991913
0.991913
0.991913
0.991913
0.991913
0.991913
0.991913
0.991913
0.991913
0.991913
0.991913
0.991913
0.991913
0.991913
0.991913
0.991913
0.991913
0.991913
0.991913
0.991913
0.991913
0.991912
0.991913
0.991913
0.991913
0.991913
0.991913
0.991913
0.991912
0.991913
0.991913
0.991913
0.991913
0.991913
0.991913
0.991913
0.991913
0.991913
0.991913
0.991913
0.991913
0.991913
0.991913
0.991913
0.991913
0.991913
0.991913
0.991913
0.991913
0.991913
0.991913
0.991913
0.991913
0.991913
0.991913
0.991913
0.991913
0.991913
0.991913
0.991913
0.991913
0.991913
0.991913
0.991913
0.991913
0.991913
0.991913
0.991913
0.991913
0.991915
0.991916
0.991907
0.991892
0.991847
0.991846
0.991749
0.991671
0.991566
0.991465
0.991369
0.99123
0.991189
0.991249
0.99122
0.991531
0.991522
0.991682
0.991771
0.991798
0.991853
0.991873
0.9919
0.991904
0.991923
0.991933
0.991934
0.99193
0.991931
0.991927
0.991918
0.991918
0.991925
0.991931
0.991935
0.991938
0.991937
0.991937
0.99193
0.991927
0.991923
0.991919
0.991915
0.991914
0.991913
0.991912
0.991912
0.991913
0.991912
0.991913
0.991913
0.991913
0.991913
0.991913
0.991913
0.991913
0.991913
0.991913
0.991913
0.991913
0.991913
0.991913
0.991913
0.991913
0.991913
0.991913
0.991913
0.991913
0.991913
0.991913
0.991913
0.991913
0.991913
0.991913
0.991913
0.991916
0.991911
0.991878
0.991796
0.991637
0.991646
0.991408
0.991275
0.99117
0.99108
0.990869
0.990788
0.990739
0.991158
0.991166
0.991239
0.99131
0.991584
0.991731
0.991791
0.991835
0.991864
0.991886
0.991906
0.991908
0.991926
0.991935
0.991955
0.991952
0.991955
0.991958
0.991952
0.991956
0.991934
0.99194
0.991934
0.99194
0.991946
0.991947
0.991949
0.991949
0.991947
0.991944
0.991951
0.991942
0.99194
0.991934
0.991927
0.991921
0.991924
0.991918
0.991918
0.991915
0.991911
0.991914
0.991909
0.991913
0.991913
0.991914
0.991908
0.991913
0.991913
0.991913
0.991913
0.991913
0.991912
0.991913
0.991913
0.991913
0.991914
0.991914
0.991911
0.991891
0.991858
0.991713
0.991675
0.99149
0.991022
0.990887
0.990539
0.99041
0.990377
0.990337
0.990256
0.990183
0.990216
0.990759
0.990814
0.990852
0.990932
0.991389
0.991659
0.99175
0.991814
0.991853
0.991877
0.991894
0.991907
0.991923
0.991929
0.991943
0.991958
0.991954
0.991975
0.991968
0.991967
0.991973
0.991975
0.991972
0.991976
0.991984
0.991988
0.991989
0.991988
0.991983
0.991998
0.991979
0.991991
0.991989
0.991986
0.991978
0.991976
0.991971
0.991977
0.991978
0.991978
0.992007
0.991999
0.991994
0.99199
0.991988
0.991978
0.99199
0.991981
0.991991
0.991996
0.991988
0.991984
0.991992
0.991981
0.992013
0.991993
0.991983
0.991998
0.991969
0.991973
0.991961
0.991971
0.991956
0.991959
0.991961
0.99196
0.991956
0.991952
0.99195
0.991954
0.991956
0.991957
0.991958
0.991968
0.991964
0.991964
0.991953
0.99195
0.991949
0.991956
0.991947
0.991939
0.991932
0.991936
0.991926
0.991924
0.991923
0.991928
0.991934
0.991933
0.991947
0.991936
0.991932
0.991935
0.991934
0.991921
0.991919
0.991922
0.991923
0.991924
0.991923
0.991906
0.991912
0.991915
0.991914
0.991916
0.991914
0.991893
0.991908
0.991911
0.991914
0.991909
0.991897
0.991851
0.991895
0.991908
0.991915
0.991902
0.991901
0.991911
0.991913
0.991913
0.991913
0.991913
0.991912
0.991913
0.991913
0.991914
0.991912
0.991909
0.991911
0.991912
0.991913
0.991913
0.991913
0.991912
0.991913
0.991913
0.991913
0.991913
0.991913
0.991913
0.991913
0.991913
0.991913
0.991913
0.991913
0.991913
0.991913
0.991914
0.991914
0.991913
0.991913
0.991913
0.991913
0.991913
0.991913
0.991913
0.991913
0.991913
0.991913
0.991913
0.991913
0.991913
0.991913
0.991913
0.991913
0.991913
0.991913
0.991913
0.991913
0.991913
0.991913
0.991913
0.991913
0.991913
0.991913
0.991913
0.991913
0.991913
0.991913
0.991913
0.991913
0.991913
0.991913
0.991913
0.991913
0.991913
0.991913
0.991913
0.991913
0.991913
0.991913
0.991913
0.991913
0.991913
0.991913
0.991913
0.991913
0.991913
0.991913
0.991913
0.991913
0.991913
0.991913
0.991913
0.991913
0.991913
0.991913
0.991913
0.991913
0.991913
0.991913
0.991913
0.991913
0.991913
0.991913
0.991913
0.991913
0.991913
0.991913
0.991913
0.991913
0.991913
0.991913
0.991913
0.991913
0.991913
0.991913
0.991913
0.991913
0.991913
0.991913
0.991913
0.991913
0.991913
0.991913
0.991913
0.991913
0.991913
0.991913
0.991913
0.991913
0.991913
0.991913
0.991913
0.991913
0.991913
0.991913
0.991913
0.991913
0.991913
0.991913
0.991913
0.991912
0.991912
0.991913
0.991915
0.991913
0.991915
0.991913
0.991915
0.991916
0.991919
0.991917
0.991919
0.991916
0.991913
0.991912
0.991916
0.991917
0.991921
0.991924
0.991928
0.991933
0.99193
0.991945
0.991945
0.991932
0.991926
0.991931
0.991926
0.991932
0.991934
0.991938
0.991942
0.991941
0.991938
0.991953
0.991952
0.991938
0.991933
0.99194
0.991936
0.991942
0.991944
0.991943
0.991942
0.991942
0.991959
0.991944
0.991946
0.991947
0.99197
0.991963
0.99196
0.991957
0.991953
0.991954
0.991964
0.991968
0.991975
0.991978
0.99198
0.991974
0.991975
0.991977
0.991987
0.99198
0.991989
0.991984
0.99199
0.991995
0.991997
0.991998
0.992
0.991987
0.992017
0.991991
0.992007
0.991987
0.992001
0.992
0.992
0.991995
0.992014
0.992002
0.991995
0.991986
0.991975
0.991967
0.991969
0.991957
0.991947
0.99194
0.99194
0.991948
0.991952
0.991953
0.991952
0.991955
0.991961
0.991961
0.991961
0.991988
0.991964
0.991965
0.991999
0.99199
0.991983
0.991975
0.991971
0.991975
0.991974
0.991981
0.99199
0.991997
0.992026
0.992048
0.992061
0.992057
0.992001
0.99199
0.991986
0.991994
0.991996
0.992004
0.992014
0.992022
0.992033
0.992025
0.992022
0.992011
0.991994
0.991982
0.99197
0.991963
0.991963
0.991969
0.991957
0.99196
0.991961
0.99195
0.991947
0.991954
0.991953
0.991945
0.991947
0.99194
0.991942
0.991936
0.991943
0.991941
0.991938
0.991944
0.991941
0.991945
0.991947
0.991956
0.991961
0.991972
0.991965
0.991967
0.991983
0.991982
0.991979
0.991989
0.991999
0.99201
0.992016
0.99202
0.992009
0.991993
0.991976
0.991979
0.991989
0.991988
0.992022
0.99199
0.991992
0.992035
0.992027
0.992019
0.992008
0.992006
0.992024
0.992043
0.992055
0.992089
0.992105
0.992109
0.992083
0.992035
0.992043
0.992032
0.992038
0.992049
0.992046
0.992052
0.992065
0.992054
0.992052
0.992049
0.992035
0.992029
0.99201
0.992026
0.992055
0.992043
0.992055
0.99209
0.992064
0.992067
0.992056
0.992054
0.992053
0.992068
0.992066
0.992089
0.992112
0.992144
0.992149
0.99218
0.992188
0.992179
0.992139
0.992138
0.992142
0.992083
0.992091
0.99205
0.992058
0.992046
0.992053
0.992044
0.992029
0.992008
0.991985
0.991984
0.991965
0.991961
0.991958
0.991954
0.991953
0.991954
0.991959
0.991959
0.991967
0.991971
0.991977
0.991983
0.991984
0.991978
0.991973
0.991969
0.991975
0.991997
0.992009
0.992016
0.992025
0.992045
0.992074
0.992071
0.992046
0.99207
0.992094
0.992118
0.992086
0.992133
0.992128
0.992123
0.992124
0.992126
0.992118
0.992142
0.992146
0.992176
0.992201
0.99223
0.992251
0.992218
0.992246
0.992242
0.992256
0.992299
0.992296
0.992297
0.992197
0.992204
0.992145
0.992147
0.992143
0.99213
0.992095
0.992096
0.992095
0.99209
0.992087
0.992076
0.992064
0.9921
0.992124
0.992171
0.992155
0.992187
0.992256
0.992215
0.992215
0.992179
0.992147
0.992128
0.992167
0.99216
0.992126
0.9921
0.992091
0.992118
0.992095
0.992089
0.99206
0.992062
0.99206
0.992052
0.992049
0.992056
0.992027
0.992043
0.992065
0.992086
0.992116
0.992162
0.992132
0.992175
0.992177
0.99217
0.992173
0.992202
0.9922
0.992211
0.992236
0.992261
0.992294
0.992311
0.99235
0.992354
0.992335
0.992354
0.992354
0.992364
0.992368
0.992298
0.992301
0.992298
0.992267
0.992204
0.992194
0.992183
0.992165
0.992158
0.99213
0.99212
0.992119
0.992081
0.992089
0.992082
0.992061
0.992048
0.992039
0.992021
0.992002
0.991993
0.992012
0.992028
0.992051
0.992085
0.992126
0.992171
0.992176
0.992259
0.99225
0.99226
0.992283
0.992292
0.992319
0.992352
0.99237
0.99241
0.992401
0.992437
0.992434
0.99244
0.992444
0.992444
0.992419
0.99237
0.992351
0.992358
0.992335
0.992267
0.992238
0.992252
0.992223
0.99216
0.992148
0.992197
0.992261
0.992331
0.992306
0.992262
0.992264
0.992263
0.992266
0.992353
0.992352
0.992349
0.992355
0.992375
0.992375
0.992406
0.99242
0.99245
0.992473
0.992484
0.992468
0.992487
0.992486
0.992502
0.992513
0.992444
0.99245
0.992417
0.992423
0.992443
0.992438
0.992418
0.992436
0.992504
0.992496
0.99251
0.992519
0.992516
0.992492
0.992466
0.992409
0.992334
0.992301
0.992376
0.992446
0.9924
0.992369
0.99236
0.992421
0.992411
0.992411
0.992413
0.992419
0.992427
0.992441
0.992463
0.992466
0.992497
0.992524
0.992541
0.992546
0.992549
0.992552
0.992562
0.99256
0.99255
0.992545
0.99253
0.992533
0.99249
0.992485
0.992439
0.99241
0.992379
0.992322
0.992363
0.992438
0.99249
0.992539
0.992544
0.992531
0.992523
0.992522
0.992516
0.992505
0.992511
0.992533
0.992537
0.992562
0.992573
0.992601
0.992596
0.992604
0.992609
0.992616
0.992626
0.992632
0.992621
0.99261
0.992614
0.992606
0.992548
0.992529
0.992585
0.992572
0.992599
0.992647
0.992625
0.992596
0.992588
0.992568
0.992552
0.992546
0.992543
0.992546
0.992559
0.992577
0.992605
0.992623
0.99266
0.992676
0.992692
0.992612
0.99262
0.992627
0.992697
0.992684
0.992672
0.992672
0.992647
0.992701
0.992695
0.992666
0.992671
0.992627
0.992599
0.992582
0.992584
0.992615
0.992629
0.992614
0.992604
0.992603
0.992614
0.992612
0.992635
0.992665
0.992675
0.992708
0.992711
0.992718
0.992728
0.992697
0.992685
0.992688
0.99267
0.992673
0.992651
0.992703
0.99276
0.99276
0.992749
0.99272
0.992708
0.992704
0.992701
0.992687
0.992682
0.992704
0.992701
0.992735
0.992763
0.992788
0.992753
0.992785
0.992781
0.99279
0.9928
0.992813
0.992811
0.99281
0.992739
0.992731
0.992751
0.992824
0.992889
0.992886
0.992859
0.992786
0.992725
0.992724
0.992787
0.99286
0.992815
0.992833
0.992807
0.992782
0.992777
0.992772
0.99277
0.992771
0.992767
0.992787
0.992803
0.992826
0.992864
0.992885
0.99293
0.992947
0.992846
0.992806
0.992821
0.992832
0.992843
0.992862
0.992811
0.992821
0.992833
0.992743
0.992742
0.992754
0.992718
0.992693
0.992669
0.992721
0.992776
0.9928
0.992902
0.992906
0.992905
0.992898
0.992897
0.99291
0.992905
0.992934
0.992946
0.992986
0.992993
0.992994
0.992955
0.992949
0.992867
0.992861
0.992847
0.992916
0.992958
0.992974
0.992954
0.992932
0.992931
0.992903
0.992854
0.99297
0.992969
0.992963
0.992962
0.992962
0.992965
0.992969
0.992975
0.992995
0.992997
0.993037
0.993028
0.993054
0.993051
0.993059
0.993059
0.99299
0.992993
0.992937
0.992926
0.992893
0.992887
0.992954
0.992932
0.993001
0.992998
0.992993
0.993051
0.993027
0.99303
0.99302
0.993019
0.99302
0.993029
0.993063
0.993087
0.99309
0.99311
0.993122
0.993094
0.993127
0.993121
0.99314
0.993149
0.993064
0.993069
0.993065
0.99307
0.993056
0.992993
0.992995
0.993046
0.993044
0.993021
0.993082
0.993058
0.993146
0.993127
0.993138
0.993144
0.993142
0.993126
0.993126
0.993148
0.993157
0.993175
0.993191
0.993202
0.993203
0.993206
0.993144
0.993131
0.993113
0.993103
0.993188
0.99317
0.993258
0.993262
0.993238
0.99319
0.993119
0.993061
0.993084
0.993172
0.993256
0.993398
0.9934
0.993391
0.993366
0.993354
0.993334
0.993307
0.993307
0.993303
0.993284
0.993314
0.993355
0.993381
0.993248
0.993254
0.99326
0.993286
0.993305
0.993266
0.993194
0.993186
0.99319
0.993278
0.993282
0.993423
0.993572
0.993543
0.993531
0.993501
0.993502
0.993491
0.993491
0.993464
0.993476
0.99348
0.993509
0.993562
0.993577
0.993635
0.993655
0.993478
0.993397
0.993437
0.993448
0.993471
0.993493
0.993413
0.993438
0.993482
0.993453
0.993449
0.993294
0.993315
0.993444
0.993422
0.993566
0.993539
0.993662
0.993665
0.99364
0.993604
0.993617
0.99361
0.993607
0.993644
0.993643
0.993686
0.993682
0.993741
0.993808
0.993824
0.993722
0.993814
0.993782
0.993782
0.99379
0.993797
0.993802
0.993645
0.993572
0.993678
0.99381
0.993907
0.993854
0.993826
0.993817
0.993819
0.993865
0.993884
0.993876
0.993862
0.993972
0.993977
0.993954
0.993918
0.993883
0.993746
0.993603
0.993598
0.993746
0.993702
0.99371
0.99384
0.993793
0.993748
0.993741
0.993732
0.993732
0.993764
0.993804
0.993835
0.993888
0.993935
0.993984
0.993984
0.993935
0.993988
0.993968
0.993976
0.993974
0.994048
0.994049
0.994052
0.994074
0.994087
0.99408
0.994079
0.994088
0.994052
0.994077
0.994051
0.994047
0.994009
0.993989
0.993964
0.993943
0.9939
0.993821
0.993765
0.993833
0.993959
0.994038
0.99404
0.994028
0.99403
0.994035
0.994024
0.99402
0.994039
0.994064
0.994084
0.994102
0.994127
0.994129
0.994147
0.994144
0.994147
0.994147
0.994148
0.994122
0.994127
0.994111
0.994129
0.994118
0.994097
0.994078
0.994066
0.994084
0.994123
0.994102
0.994097
0.994079
0.994072
0.994077
0.994088
0.994111
0.994107
0.99413
0.994138
0.994159
0.994182
0.994181
0.994176
0.994187
0.994181
0.994183
0.994184
0.994143
0.99415
0.994121
0.994121
0.994134
0.994101
0.994122
0.994118
0.994101
0.994083
0.994128
0.994129
0.994162
0.994147
0.994148
0.99413
0.994102
0.994097
0.994118
0.994123
0.994097
0.994057
0.994075
0.994106
0.99414
0.994144
0.994159
0.994185
0.994176
0.994163
0.994159
0.994164
0.994167
0.994169
0.99416
0.994189
0.994184
0.994214
0.994225
0.994252
0.994269
0.994274
0.994263
0.994215
0.994199
0.994213
0.994191
0.994188
0.994159
0.994141
0.994138
0.99414
0.994119
0.994118
0.994119
0.994119
0.99413
0.994125
0.994127
0.994122
0.994123
0.994125
0.99414
0.994146
0.994162
0.994166
0.994207
0.994211
0.994213
0.994215
0.994218
0.994225
0.994249
0.994267
0.994296
0.99432
0.994342
0.994344
0.994324
0.994295
0.9943
0.994262
0.994249
0.994249
0.994224
0.994224
0.994221
0.994219
0.994221
0.994214
0.994219
0.994183
0.994175
0.994175
0.994183
0.994188
0.994222
0.994271
0.994246
0.994246
0.994244
0.994245
0.994257
0.994254
0.994254
0.994289
0.994287
0.994274
0.994247
0.99421
0.994191
0.994165
0.994154
0.994163
0.994152
0.994173
0.994196
0.994198
0.994213
0.99421
0.994189
0.994188
0.994175
0.994163
0.994179
0.994183
0.994212
0.994221
0.994275
0.994256
0.994249
0.994248
0.994255
0.99426
0.994293
0.9943
0.994331
0.994336
0.994366
0.994386
0.994409
0.994412
0.99439
0.994359
0.994358
0.994349
0.994318
0.994319
0.994319
0.994317
0.994316
0.994344
0.994354
0.994325
0.994319
0.994282
0.994265
0.99424
0.994281
0.994345
0.994328
0.994328
0.99433
0.994332
0.994335
0.994348
0.994375
0.994388
0.994414
0.994425
0.994444
0.994463
0.994485
0.994482
0.994475
0.994451
0.994427
0.994431
0.994417
0.994414
0.994358
0.994357
0.994316
0.994316
0.994288
0.99428
0.994282
0.994248
0.994226
0.994198
0.99419
0.994206
0.994185
0.994205
0.994233
0.994281
0.994332
0.994355
0.994404
0.994394
0.994387
0.994381
0.994384
0.994396
0.994397
0.994418
0.994435
0.994443
0.994469
0.994471
0.994483
0.994493
0.994492
0.994485
0.994473
0.994463
0.994474
0.994454
0.994447
0.994442
0.994438
0.994437
0.994438
0.994441
0.994405
0.994361
0.994335
0.994311
0.994364
0.994407
0.994445
0.994438
0.994439
0.99443
0.994395
0.994385
0.994335
0.994334
0.99439
0.994426
0.994431
0.994433
0.994433
0.99445
0.994455
0.994462
0.994483
0.994485
0.994497
0.994501
0.994505
0.994509
0.994514
0.994511
0.994512
0.994506
0.994494
0.994502
0.994501
0.994504
0.994502
0.994478
0.994471
0.994471
0.994429
0.994427
0.994414
0.994411
0.994352
0.994354
0.994323
0.994318
0.994286
0.994258
0.994309
0.994361
0.994405
0.994438
0.994447
0.994475
0.994467
0.994461
0.994465
0.994468
0.994469
0.994481
0.994482
0.994498
0.994502
0.994509
0.994517
0.994515
0.99452
0.994522
0.99452
0.994522
0.994518
0.994516
0.994518
0.994508
0.994503
0.994497
0.994493
0.99449
0.994489
0.99449
0.994501
0.994497
0.994494
0.994475
0.994456
0.994427
0.99439
0.994378
0.994394
0.99444
0.994421
0.994424
0.994464
0.994468
0.994473
0.994472
0.994468
0.994449
0.99445
0.99447
0.994486
0.994499
0.994504
0.994514
0.994508
0.994505
0.994497
0.994483
0.994468
0.994455
0.994426
0.994383
0.994382
0.994422
0.994453
0.994474
0.994475
0.994492
0.994489
0.994483
0.994483
0.994484
0.994487
0.994492
0.994495
0.994506
0.99451
0.994511
0.994515
0.994522
0.994522
0.994527
0.994529
0.994531
0.99453
0.994531
0.994522
0.99452
0.994521
0.994518
0.994519
0.994509
0.994511
0.994509
0.994511
0.994497
0.994494
0.994501
0.994475
0.994476
0.994473
0.99447
0.994447
0.99445
0.994426
0.994404
0.994362
0.994335
0.994338
0.994312
0.994281
0.994251
0.99426
0.994265
0.994264
0.994255
0.994254
0.994213
0.994214
0.994241
0.994243
0.994287
0.994315
0.994362
0.994361
0.994404
0.994441
0.994464
0.994483
0.994483
0.994502
0.994504
0.994506
0.994509
0.994511
0.994515
0.994517
0.99452
0.994526
0.994526
0.99453
0.994533
0.994536
0.994539
0.994538
0.994539
0.994532
0.99453
0.994531
0.994532
0.994528
0.994527
0.994525
0.994526
0.994525
0.994526
0.994517
0.994516
0.994508
0.994509
0.994509
0.994509
0.994506
0.994517
0.994532
0.994531
0.994532
0.994533
0.994534
0.994534
0.994533
0.994532
0.994531
0.994532
0.99454
0.994541
0.994534
0.994526
0.994525
0.994517
0.99451
0.994512
0.994505
0.994506
0.994499
0.9945
0.994492
0.994498
0.994486
0.994483
0.994487
0.994486
0.994479
0.994483
0.994497
0.994506
0.994504
0.994516
0.994518
0.994528
0.994523
0.994517
0.994514
0.994506
0.994508
0.994501
0.994489
0.994489
0.994491
0.994501
0.994512
0.994512
0.994513
0.994513
0.994514
0.994516
0.994518
0.994521
0.994521
0.994523
0.994528
0.994529
0.994533
0.994536
0.99454
0.994544
0.994547
0.994547
0.994548
0.994542
0.994541
0.994542
0.994543
0.994541
0.994541
0.994541
0.994541
0.99454
0.994539
0.994552
0.994553
0.994553
0.994553
0.994553
0.994553
0.994551
0.994552
0.994551
0.99455
0.99455
0.99455
0.99455
0.994552
0.994546
0.994547
0.994547
0.994543
0.994542
0.994535
0.994525
0.994521
0.994512
0.994513
0.994506
0.994499
0.994504
0.994512
0.994507
0.994516
0.994524
0.994526
0.994523
0.994518
0.994518
0.994517
0.994531
0.994525
0.994526
0.994525
0.994525
0.994526
0.994528
0.994528
0.994526
0.994531
0.994532
0.994536
0.994539
0.994544
0.994548
0.994551
0.994554
0.994555
0.994556
0.994556
0.994556
0.994556
0.994561
0.994559
0.994564
0.994563
0.994562
0.994561
0.994561
0.994561
0.994556
0.994557
0.994557
0.994553
0.994553
0.994553
0.994549
0.994544
0.99454
0.994532
0.994529
0.994518
0.994519
0.994526
0.994521
0.99453
0.994531
0.994537
0.994537
0.994531
0.994526
0.994538
0.994536
0.994536
0.994531
0.994523
0.994523
0.994517
0.994517
0.994523
0.994531
0.994536
0.994537
0.994547
0.994541
0.994541
0.994541
0.994541
0.994539
0.994537
0.994538
0.994544
0.994542
0.994547
0.994547
0.994552
0.994557
0.994561
0.994564
0.994567
0.994569
0.99457
0.99456
0.994564
0.994563
0.994567
0.994566
0.994565
0.994565
0.994564
0.994565
0.994564
0.994565
0.99456
0.994561
0.994557
0.994557
0.994554
0.994551
0.994546
0.994543
0.994536
0.994535
0.994541
0.994537
0.994543
0.994544
0.994543
0.994544
0.994552
0.994547
0.994552
0.994551
0.994551
0.99455
0.994549
0.994549
0.99455
0.994546
0.994554
0.994552
0.994557
0.99456
0.994564
0.994568
0.994572
0.994577
0.994577
0.994578
0.994576
0.994573
0.994573
0.994573
0.994573
0.994572
0.994573
0.994567
0.994569
0.994567
0.994568
0.994568
0.994568
0.994569
0.994559
0.994558
0.994559
0.99456
0.994563
0.99457
0.994567
0.994569
0.994569
0.994568
0.994567
0.99457
0.99457
0.99457
0.994566
0.994568
0.994568
0.994565
0.994564
0.994564
0.994561
0.994559
0.994556
0.994552
0.994548
0.994547
0.994552
0.994556
0.994557
0.994555
0.994557
0.994566
0.994565
0.994564
0.994564
0.994559
0.994553
0.994553
0.994552
0.994557
0.994563
0.994567
0.99458
0.994584
0.994586
0.994603
0.994614
0.994621
0.994623
0.994627
0.99462
0.994609
0.994603
0.994599
0.994594
0.99459
0.994589
0.994588
0.994587
0.994585
0.994587
0.994581
0.994583
0.994583
0.994582
0.994581
0.99458
0.994578
0.994576
0.994578
0.994572
0.994568
0.994568
0.994556
0.994567
0.994568
0.994564
0.994556
0.994553
0.994555
0.994557
0.994559
0.994559
0.994551
0.99455
0.994557
0.994566
0.994584
0.994599
0.994594
0.994604
0.9946
0.994586
0.994606
0.99459
0.994577
0.994562
0.994536
0.994596
0.994597
0.994607
0.994599
0.994599
0.994595
0.994593
0.994591
0.994591
0.994587
0.994587
0.994583
0.994587
0.994583
0.99458
0.994582
0.994582
0.994582
0.99458
0.994578
0.994575
0.994579
0.994578
0.994578
0.994576
0.994574
0.994577
0.994572
0.994571
0.994576
0.994576
0.994575
0.994572
0.994573
0.994573
0.994572
0.99457
0.994569
0.994568
0.994565
0.994563
0.99456
0.994566
0.994568
0.994576
0.994577
0.994583
0.994588
0.994593
0.994594
0.994592
0.994576
0.994581
0.994516
0.994415
0.994411
0.994385
0.994372
0.994366
0.994368
0.994385
0.994403
0.994412
0.994508
0.994561
0.994585
0.994592
0.994595
0.994595
0.994596
0.994595
0.994595
0.994592
0.994594
0.994595
0.994596
0.994596
0.994599
0.994593
0.994593
0.994593
0.994585
0.994585
0.994586
0.994585
0.994586
0.994585
0.994583
0.99458
0.994576
0.99457
0.994568
0.994575
0.99458
0.994583
0.99458
0.994587
0.994586
0.994588
0.994585
0.994591
0.994584
0.994589
0.994581
0.994558
0.994509
0.994431
0.994342
0.994312
0.994292
0.994268
0.99427
0.994275
0.994281
0.994284
0.994311
0.994338
0.994291
0.994292
0.994282
0.994279
0.994271
0.994327
0.994246
0.994244
0.994241
0.99422
0.994217
0.994216
0.994221
0.994225
0.994227
0.994225
0.994221
0.994217
0.994192
0.994196
0.994196
0.994196
0.994195
0.994199
0.994202
0.994254
0.994255
0.994282
0.994337
0.994363
0.994437
0.994508
0.994542
0.994556
0.994573
0.994582
0.994589
0.994593
0.994594
0.994594
0.994594
0.99459
0.994593
0.994593
0.994592
0.994588
0.994589
0.99459
0.994589
0.994587
0.994585
0.994584
0.994584
0.994584
0.994584
0.994584
0.994584
0.994587
0.99458
0.994584
0.994577
0.994579
0.994579
0.99458
0.994581
0.994583
0.994583
0.994579
0.994578
0.994577
0.994576
0.994577
0.994578
0.994578
0.994588
0.994587
0.994588
0.994588
0.994588
0.994589
0.99459
0.994591
0.994585
0.994583
0.99458
0.994577
0.994577
0.994578
0.994581
0.994583
0.994582
0.994591
0.994588
0.994586
0.994585
0.994584
0.994582
0.994583
0.994578
0.99458
0.994576
0.994578
0.994573
0.994574
0.994573
0.994574
0.994575
0.994577
0.994579
0.994577
0.994576
0.994576
0.994576
0.994575
0.994575
0.994573
0.994574
0.994574
0.994572
0.994577
0.994581
0.994584
0.994586
0.994587
0.994586
0.99459
0.994584
0.994585
0.994588
0.994587
0.994586
0.994588
0.99458
0.994581
0.994567
0.994582
0.994588
0.994597
0.994588
0.994574
0.994554
0.994549
0.994556
0.994511
0.994451
0.994374
0.99432
0.99429
0.994268
0.994224
0.994205
0.994188
0.994195
0.994146
0.99415
0.994152
0.994153
0.994157
0.994156
0.994155
0.994156
0.994153
0.994149
0.994144
0.994146
0.994109
0.99411
0.994117
0.994122
0.994126
0.994131
0.994129
0.994132
0.994173
0.994169
0.994185
0.994219
0.994237
0.994257
0.994305
0.994331
0.994391
0.994451
0.994513
0.994547
0.994557
0.994571
0.994578
0.994587
0.994591
0.994592
0.994593
0.994592
0.994593
0.994589
0.994591
0.994594
0.994588
0.994593
0.994586
0.994593
0.994585
0.994593
0.994596
0.994598
0.994599
0.994598
0.994597
0.994589
0.994585
0.994597
0.99459
0.994589
0.994587
0.994589
0.994588
0.994588
0.994585
0.994584
0.994582
0.994578
0.994579
0.994577
0.994578
0.994577
0.994578
0.994581
0.994584
0.994586
0.994586
0.994586
0.994586
0.99459
0.994584
0.994585
0.994587
0.994587
0.994587
0.994586
0.994585
0.994589
0.994583
0.994587
0.994581
0.994583
0.994585
0.994587
0.994579
0.994578
0.994567
0.994548
0.994535
0.994546
0.994475
0.994438
0.994409
0.994383
0.994336
0.994288
0.994273
0.994249
0.994203
0.994178
0.994166
0.994156
0.994118
0.994071
0.994064
0.994069
0.994071
0.994086
0.994095
0.994095
0.99409
0.994093
0.994101
0.994138
0.994146
0.994156
0.994197
0.994217
0.994218
0.994277
0.994279
0.994293
0.994343
0.994395
0.994443
0.99447
0.994526
0.994553
0.994558
0.994571
0.994578
0.994585
0.99459
0.994591
0.994591
0.994591
0.994591
0.994587
0.994589
0.99459
0.994585
0.994588
0.994587
0.99459
0.994592
0.99459
0.99459
0.99459
0.994591
0.994593
0.994594
0.994593
0.994591
0.99459
0.994589
0.994587
0.994587
0.994586
0.994584
0.99459
0.99459
0.994585
0.99459
0.994585
0.994587
0.994585
0.99459
0.994583
0.994584
0.994587
0.994581
0.994582
0.994585
0.994585
0.994584
0.994582
0.994581
0.994588
0.99458
0.994586
0.994581
0.994581
0.99458
0.994583
0.994581
0.994577
0.994576
0.994579
0.994583
0.994575
0.994578
0.99458
0.994583
0.994583
0.994582
0.994585
0.994585
0.994586
0.994587
0.994585
0.994585
0.994584
0.994583
0.994582
0.994578
0.994575
0.99457
0.994562
0.994566
0.994568
0.994565
0.994574
0.994561
0.994523
0.994435
0.994346
0.994298
0.994252
0.994203
0.994209
0.994275
0.994241
0.994243
0.994241
0.994244
0.994242
0.994245
0.994298
0.994353
0.994364
0.994417
0.994428
0.994479
0.994523
0.99454
0.994557
0.994562
0.994571
0.994577
0.994581
0.994585
0.994589
0.994589
0.99459
0.994589
0.99459
0.994586
0.994587
0.994587
0.994583
0.994589
0.994581
0.994586
0.99459
0.994592
0.994589
0.99459
0.994587
0.994587
0.994596
0.994596
0.994586
0.994591
0.994594
0.99459
0.994591
0.994593
0.994596
0.994598
0.994598
0.994596
0.994592
0.99459
0.994608
0.994598
0.994608
0.994611
0.994612
0.994608
0.994602
0.994585
0.994584
0.994585
0.994585
0.994587
0.99459
0.994589
0.994588
0.994588
0.994587
0.994586
0.994586
0.994586
0.994584
0.994584
0.994584
0.994586
0.994588
0.994585
0.994578
0.994576
0.994575
0.99458
0.994583
0.994581
0.994581
0.994576
0.994577
0.994581
0.994581
0.994584
0.994586
0.994586
0.994586
0.994585
0.994583
0.99458
0.994575
0.994573
0.994578
0.994581
0.99458
0.994581
0.994578
0.994584
0.994583
0.994582
0.994584
0.994586
0.994586
0.994587
0.994587
0.994586
0.994586
0.994585
0.994583
0.994582
0.994578
0.994581
0.994585
0.994577
0.994584
0.994576
0.994581
0.994591
0.994591
0.994588
0.994591
0.994599
0.994608
0.994614
0.994613
0.994607
0.994603
0.994618
0.994608
0.994623
0.994625
0.994621
0.994613
0.994604
0.994598
0.994587
0.994593
0.994597
0.994601
0.994602
0.994628
0.994628
0.994623
0.994611
0.994601
0.994596
0.994584
0.994589
0.994595
0.994599
0.994599
0.994607
0.994597
0.99462
0.994596
0.994589
0.994604
0.994594
0.994601
0.994598
0.994592
0.994594
0.994592
0.994589
0.994589
0.994587
0.994585
0.994587
0.994589
0.994588
0.994587
0.994587
0.994585
0.994583
0.994588
0.994583
0.994582
0.994588
0.994579
0.994575
0.994584
0.994575
0.994581
0.99458
0.99458
0.994581
0.994583
0.994581
0.994582
0.994581
0.99458
0.994578
0.994576
0.994575
0.994568
0.994574
0.994576
0.994579
0.994571
0.994582
0.994592
0.99458
0.994597
0.994582
0.994605
0.994615
0.99462
0.994623
0.994599
0.994591
0.994617
0.994593
0.994585
0.994603
0.994586
0.994587
0.994593
0.994592
0.994596
0.994593
0.994592
0.994592
0.994591
0.994589
0.994588
0.994588
0.994587
0.994582
0.994588
0.994578
0.994581
0.994585
0.994586
0.994583
0.994577
0.994584
0.994572
0.994585
0.994573
0.994576
0.994582
0.994582
0.994576
0.994568
0.994575
0.994573
0.99456
0.994564
0.994571
0.994569
0.994572
0.994569
0.99457
0.994572
0.994568
0.99457
0.994568
0.994566
0.994564
0.994563
0.994553
0.99456
0.99456
0.994571
0.994558
0.994579
0.99457
0.994587
0.994576
0.99458
0.994592
0.994595
0.994593
0.994588
0.994586
0.994575
0.994582
0.994575
0.994578
0.994578
0.99458
0.994586
0.994587
0.994591
0.994589
0.99459
0.99459
0.994588
0.994584
0.994586
0.994578
0.994573
0.994573
0.994572
0.994562
0.994565
0.994555
0.994563
0.994564
0.994544
0.994542
0.99456
0.994566
0.994567
0.994552
0.994552
0.994538
0.994561
0.994554
0.994552
0.994543
0.99454
0.994528
0.994535
0.994541
0.994544
0.994547
0.99453
0.994541
0.994551
0.99456
0.994543
0.994578
0.99456
0.994574
0.994553
0.994596
0.994599
0.994584
0.994602
0.994601
0.994599
0.994597
0.994591
0.99459
0.994587
0.994586
0.994578
0.99458
0.994578
0.994577
0.994582
0.994585
0.994579
0.994573
0.994572
0.994572
0.994576
0.994581
0.994581
0.994585
0.994585
0.994586
0.994583
0.994587
0.994587
0.994586
0.994586
0.994584
0.994584
0.994583
0.994582
0.994584
0.994582
0.994582
0.994581
0.994579
0.994577
0.994577
0.994582
0.994581
0.994576
0.994572
0.994572
0.994567
0.994569
0.994573
0.994575
0.994571
0.994575
0.99457
0.994575
0.994573
0.994571
0.994568
0.99457
0.99457
0.994565