/*--------------------------------*- C++ -*----------------------------------*\
| =========                 |                                                 |
| \\      /  F ield         | OpenFOAM: The Open Source CFD Toolbox           |
|  \\    /   O peration     | Version:  5.0                                   |
|   \\  /    A nd           | Web:      www.OpenFOAM.org                      |
|    \\/     M anipulation  |                                                 |
\*---------------------------------------------------------------------------*/
FoamFile
{
    version     2.0;
    format      ascii;
    class       volVectorField;
    location    "60";
    object      wallShearStressHyper;
}
// * * * * * * * * * * * * * * * * * * * * * * * * * * * * * * * * * * * * * //

dimensions      [1 -1 -2 0 0 0 0];

internalField   uniform (0 0 0);

boundaryField
{
    Wall_Aorta
    {
        type            calculated;
        value           nonuniform List<vector> 
78862
(
(0.222211 0.967615 -0.902338)
(0.107085 0.596219 -0.862317)
(0.060677 0.196605 -0.351128)
(-0.00783017 0.0820297 -0.199254)
(4.53486e-08 -3.96506e-06 -8.61577e-06)
(-7.32563e-07 3.46327e-06 -4.44836e-06)
(-0.161662 0.135731 0.0401071)
(-0.167189 0.138209 0.0464053)
(-0.782358 0.386938 -0.0754346)
(-0.798367 0.376197 -0.122559)
(-2.18351 0.570373 -0.242223)
(-1.85805 0.571343 -0.164573)
(-0.090438 0.958092 -0.373283)
(-0.0971711 0.765914 -0.347584)
(0.338052 5.64552 -1.59382)
(1.01791 6.22012 -1.38649)
(0.763067 3.64189 -0.682131)
(1.24006 3.00759 -0.670229)
(0.962053 2.39194 -0.201135)
(0.75015 3.20659 -0.699537)
(-0.871968 0.495137 -0.0182667)
(-0.879027 0.454545 0.0341325)
(-0.801773 0.48385 -0.0130034)
(1.06311 0.368079 -0.646851)
(-0.936971 0.566748 0.065713)
(0.0324665 -0.285679 -0.0428212)
(0.0275366 -0.261746 -0.0356477)
(-0.56759 1.42127 0.209318)
(-0.401706 1.30681 0.191161)
(2.57975 7.34805 2.40186)
(4.22583 6.92726 1.81171)
(3.18618 5.0639 -1.40912)
(4.02325 5.22669 -0.994165)
(0.382271 1.16885 -0.556999)
(4.17481 4.61045 -1.12251)
(0.173675 1.09095 -0.571791)
(1.146 0.239263 -0.814752)
(0.00480047 -0.00864826 0.021076)
(0.00496706 -0.00773302 0.0222708)
(-0.000494493 -0.00757573 0.0188901)
(-0.00298711 -0.00755472 0.0235228)
(-0.00226905 -0.0070378 0.0228404)
(0.00251915 -0.00470238 0.0198142)
(-0.00574161 -0.00957071 0.0333057)
(-0.00749363 -0.0181953 0.0388555)
(1.50284 0.0696091 0.230857)
(1.45216 -0.538223 0.218404)
(1.69534 -0.27321 0.318369)
(-0.931453 0.693556 -0.0508517)
(-0.959013 0.7476 -0.0498587)
(1.27826 0.494695 -1.54851)
(-0.324895 0.0643492 -0.406372)
(-0.412818 0.226088 -0.359411)
(-0.104344 0.0535709 -0.0294171)
(-0.060188 0.0172787 -0.0485376)
(4.05285 4.44984 -0.446679)
(5.49432 5.4203 0.894249)
(6.0965 5.0886 1.04518)
(1.50915 1.16112 -2.4536)
(4.25459 4.28067 -1.01107)
(10.8621 6.86472 1.90582)
(9.71068 7.13893 1.69609)
(13.7527 21.9293 -1.01954)
(16.143 23.1494 -2.36387)
(14.7516 14.5465 2.31692)
(15.372 14.6156 1.64116)
(14.1216 13.9713 1.13673)
(12.8142 21.8367 0.95427)
(14.156 14.3002 0.608518)
(12.3588 17.1765 -2.16025)
(12.4378 18.0158 -2.29497)
(12.0821 17.0515 -1.82698)
(3.11075 4.34566 -0.819279)
(3.08194 4.77496 -0.846428)
(3.89779 4.48202 -1.4755)
(0.0785479 0.251808 -0.733876)
(0.13132 0.297291 -0.779964)
(0.159719 0.225369 -0.746807)
(0.167187 0.255821 -0.78769)
(-0.142914 0.238417 -0.444311)
(-0.126552 0.193567 -0.493477)
(0.0841335 -0.107147 -0.580757)
(0.141643 -0.150714 -0.623729)
(0.31014 -0.415873 -0.696993)
(0.337171 -0.37331 -0.80346)
(0.286739 -0.375082 -0.781338)
(0.297615 -0.391753 -0.763131)
(7.0518 12.0853 -5.4093)
(7.7887 3.85871 -1.96835)
(6.96235 3.26945 -0.929546)
(6.85826 4.96189 -0.981765)
(16.5269 11.6338 2.66898)
(21.8345 20.248 3.59603)
(17.0397 18.5945 4.51047)
(24.5012 23.0304 4.29923)
(-3.03547 -2.75426 0.361983)
(-2.86833 -1.71691 -0.141144)
(-0.347517 9.77834 2.75381)
(-0.105515 10.4058 2.92948)
(-1.79858 6.18081 3.10751)
(-1.69774 6.95638 2.65498)
(-2.11366 6.43197 2.33413)
(8.17678 12.5323 -4.85136)
(0.0376985 0.0536575 -0.206766)
(0.0302422 0.0675895 -0.213931)
(0.00778668 0.0855328 -0.240086)
(0.00683388 0.0827041 -0.241977)
(-0.021149 0.0457587 -0.203859)
(-0.0290367 0.054654 -0.205739)
(-0.0134025 0.0555733 -0.237874)
(-0.0160241 0.0548633 -0.23551)
(-0.0448406 0.0558876 -0.161131)
(-0.0528971 0.0793443 -0.162375)
(3.71721 -0.519167 -5.95147)
(2.23563 -0.839603 -7.12578)
(6.56118 -0.514734 -4.98311)
(4.37165 2.83545 -3.68771)
(4.61563 -0.452496 -6.66877)
(4.88331 2.66664 -5.3483)
(1.77835 -0.428315 -1.79814)
(1.83562 0.151639 -2.4122)
(3.53121 1.37762 -1.69297)
(0.277394 0.202203 -0.382596)
(3.12149 0.797482 -2.01699)
(0.222329 0.170961 -0.369116)
(10.1855 4.26745 3.43804)
(10.4346 4.808 2.21501)
(13.5498 3.32773 -3.04025)
(13.708 3.26189 -4.04244)
(15.4445 3.58194 -7.13481)
(17.0135 3.75051 -6.95042)
(18.5984 6.54937 -12.2152)
(19.2223 11.1124 -12.4468)
(20.344 9.34656 -11.3096)
(20.3137 9.85212 -12.3537)
(21.6005 12.0953 -15.7356)
(18.8223 5.95216 -13.1186)
(18.836 7.71551 -14.5085)
(-1.83659 2.09802 -6.7895)
(-1.79216 2.18932 -6.27808)
(-0.0977668 2.08431 -3.95407)
(0.635044 2.07687 -4.29083)
(1.60367 0.338714 -2.05191)
(1.54397 0.665609 -2.58545)
(-3.04941 15.1967 -18.4725)
(-2.09519 8.20009 -13.2604)
(-0.44465 1.33742 -7.96416)
(-0.114446 1.41626 -5.093)
(-3.05956 0.24288 -3.0053)
(-3.88532 1.83503 -3.44176)
(-12.715 19.6338 -7.91546)
(-12.8786 16.2843 -6.72297)
(4.03306 20.1593 -3.13723)
(4.15428 23.1573 -4.48116)
(4.64415 24.6493 -7.64238)
(7.57785 12.4295 -3.84622)
(3.51611 8.02905 0.268787)
(7.81956 18.2074 -0.952648)
(12.5672 31.8319 -3.41415)
(-0.199959 -0.739657 -0.0230252)
(0.121672 1.5336 0.515753)
(2.04725 -3.40387 -0.302373)
(2.97132 -2.1262 -1.27631)
(6.12418 10.8143 -2.44126)
(5.5266 10.4299 -2.65336)
(3.95357 6.13956 -1.62634)
(4.20233 6.87567 -2.2591)
(2.01316 6.48691 -0.248053)
(3.13398 7.33583 -0.711488)
(0.507087 4.49702 -0.377805)
(0.566854 5.06919 -0.92481)
(0.245121 2.15242 -0.0580123)
(0.0039749 1.30923 0.0275027)
(2.80354 22.9691 -5.17601)
(-4.66057 0.85679 -6.96473)
(-5.13925 0.567811 -6.64122)
(-4.83574 0.727105 -5.96266)
(-2.08609 0.938228 -3.47932)
(-2.18855 1.15394 -3.28043)
(-1.36047 1.22072 -2.10802)
(-1.18404 1.32561 -2.22935)
(-1.27754 3.42472 -5.70316)
(-2.15391 5.16591 -7.59684)
(-2.97261 6.27253 -10.468)
(-3.04206 7.46989 -12.8071)
(0.40756 2.81179 -7.60462)
(0.867729 2.95299 -8.72621)
(4.30167 -0.613833 -5.95298)
(4.03522 -0.356723 -4.80308)
(2.49871 -0.399625 -2.94783)
(1.77038 0.0348099 -2.08177)
(1.87266 -0.038888 -1.9896)
(2.47108 -0.211401 -3.0395)
(2.29328 -0.339902 -2.59774)
(2.2554 -0.297722 -2.24291)
(2.03752 -0.137714 -2.35724)
(2.0682 -0.17259 -2.21394)
(2.38309 -0.282911 -2.23715)
(1.99838 -0.169694 -1.67492)
(2.20478 -0.131937 -1.77871)
(2.34116 -0.00709145 -2.08714)
(2.22026 0.213789 -2.08063)
(1.90226 0.176708 -1.3426)
(1.86268 0.00961357 -1.56795)
(1.94286 0.0527823 -1.24417)
(1.80913 -0.0682249 -1.44757)
(1.64173 0.124347 -1.85909)
(1.86403 2.08443 -6.84161)
(1.2875 2.11872 -7.19374)
(7.21125 1.08874 -10.9186)
(8.82455 1.16268 -11.5641)
(0.741573 0.997768 -4.22074)
(1.15253 1.05621 -4.27447)
(-0.0222529 0.732697 -11.6819)
(32.8547 -13.9079 -55.6333)
(7.08564 0.960741 -6.63142)
(5.5992 1.53888 -3.74996)
(16.0486 1.41614 -8.58422)
(19.8529 1.35498 -7.87736)
(19.6138 1.83423 -7.96174)
(18.8507 1.94257 -8.28312)
(5.36827 0.319097 -1.87096)
(4.97478 1.22709 -1.00523)
(5.36726 8.20302 -12.5191)
(6.58681 11.3588 -15.9514)
(6.38197 6.45094 -5.7879)
(5.55726 4.78504 -6.64281)
(4.55086 5.38742 -7.39744)
(4.90808 4.31348 -5.78791)
(-0.215956 1.13475 -1.58305)
(-0.306372 0.771542 -0.591189)
(-0.421889 0.779272 -0.828962)
(-0.223631 1.14462 -1.50148)
(-1.08512 3.90418 -1.90942)
(-1.14146 2.99596 -1.79255)
(0.84831 0.820636 -0.560365)
(1.50743 1.08199 -0.860076)
(0.149571 0.267317 -0.317745)
(0.165242 0.303855 -0.282364)
(2.36137 7.82645 -4.91371)
(2.68419 8.6548 -4.91805)
(2.11398 0.467928 -1.09424)
(2.22132 0.67833 -1.18544)
(-0.00974732 -0.127324 0.453271)
(0.267173 -0.432507 0.262076)
(12.0461 -11.9356 -8.32724)
(13.5115 -11.5975 -8.75209)
(11.7778 -12.9921 -7.61126)
(9.28356 -9.02967 -4.4559)
(8.78752 -8.47839 -5.10996)
(1.69014 -1.97475 -0.86813)
(1.84198 -1.97224 -0.60717)
(1.78221 -1.65698 -0.438794)
(2.71193 -0.185271 -0.0514388)
(0.634279 2.61696 0.0845802)
(1.77715 0.0927418 -0.0859787)
(1.97735 0.13282 -0.065834)
(8.1102 2.7476 1.321)
(7.22014 1.90118 1.42927)
(7.1966 1.69577 0.0396518)
(6.95132 1.74979 1.45855)
(6.50362 1.27692 0.671344)
(-1.05651 0.677683 -1.13557)
(-1.13695 0.598364 -1.04406)
(-0.000425436 0.000500862 0.000898372)
(-0.000764106 0.000499327 0.000460677)
(0.190527 0.283856 -0.540542)
(0.171372 0.289422 -0.550873)
(0.0459829 0.115919 -0.422865)
(0.0687341 0.113779 -0.39459)
(5.71371 1.4774 -0.131956)
(1.22908 -0.242864 -0.804034)
(1.30778 -0.186716 -0.758263)
(1.54232 -0.261889 -0.924385)
(1.58825 -0.284656 -0.958814)
(1.61681 -0.344716 -0.351234)
(1.76831 -0.413488 -0.584517)
(0.799504 0.107981 -0.020952)
(1.35737 0.188948 0.0123728)
(2.51054 0.284296 -0.249427)
(1.47215 0.0905221 -0.249449)
(1.21543 -0.163976 -1.04531)
(1.31015 -0.165325 -1.12329)
(0.361653 -0.737348 -0.867504)
(0.357728 -0.76506 -0.965605)
(3.91629 0.508937 -4.58502)
(2.97046 1.35782 -5.34138)
(2.60739 0.241177 -2.56452)
(-0.0476853 -0.174775 -0.0869444)
(-0.0374977 -0.260501 -0.0609434)
(2.2869 0.22508 -2.46164)
(-1.37937 4.22856 -4.19216)
(-0.652067 5.01054 -5.30028)
(3.04506 0.228581 -1.99928)
(2.86084 0.208867 -1.83771)
(2.24831 0.147194 -1.31049)
(1.84327 0.265291 -1.48663)
(0.535189 -0.441295 0.190392)
(0.679085 -0.508345 0.132401)
(0.674226 -0.402717 0.157521)
(0.0165267 0.304313 -0.389724)
(-0.0952925 0.33396 -0.347701)
(-0.0418693 0.407755 -0.538158)
(-0.0504095 0.208778 -0.220235)
(0.247726 0.113777 -0.0126655)
(0.168071 0.0777127 -0.00607356)
(-0.161331 0.229802 -0.207119)
(-0.115481 0.280845 -0.329824)
(0.252243 0.104009 -0.0368817)
(0.157694 0.0851138 -0.0441696)
(-0.0271725 0.210907 -0.25206)
(0.168516 0.07476 -0.0484107)
(0.459737 -0.474267 0.117791)
(-0.0565983 0.157115 -0.114006)
(0.564739 -0.45628 0.130795)
(-0.1567 0.209636 -0.137654)
(-0.0501364 0.130915 -0.12071)
(0.715316 -0.538412 0.0996978)
(-0.0550827 0.12908 -0.0614269)
(0.693422 -0.423324 0.102812)
(-0.146379 0.169625 -0.0783961)
(-0.0241945 0.0485665 -0.0329717)
(-0.0577784 0.0510165 -0.0443392)
(-0.0503757 0.0637114 -0.072329)
(0.0334638 0.348888 -0.49208)
(0.478406 -0.51533 0.0569091)
(0.015119 0.498927 -0.692851)
(0.583971 -0.498329 0.0777204)
(0.115167 0.421385 -0.595212)
(0.504696 -0.467271 0.0128422)
(0.722231 -0.577269 0.0639647)
(0.0168138 0.177872 -0.294346)
(0.680198 -0.457348 0.0727523)
(0.599489 -0.475976 -0.0162839)
(0.472877 -0.539921 0.0578215)
(0.177643 0.531755 -0.778659)
(0.575924 -0.498615 -0.0166862)
(0.311116 1.04278 -0.933744)
(0.150204 0.763246 -1.17589)
(0.400601 -0.486173 -0.0282591)
(0.183021 0.221221 -0.436274)
(0.492579 -0.533219 -0.010112)
(0.32343 0.326401 -0.523054)
(0.392366 -0.45344 -0.0332056)
(0.302486 -0.650882 0.215767)
(0.460884 0.59368 -0.676146)
(0.315427 -0.682718 0.267388)
(0.353202 0.617002 -1.30994)
(0.237295 -0.690362 0.273665)
(-0.00361095 0.00761821 -0.00233859)
(0.22226 -0.560429 0.134658)
(-0.00583448 0.0130439 -0.0051875)
(0.286588 -0.570777 0.123029)
(-0.0050801 0.0150871 -0.00686489)
(0.221529 -0.515402 0.0999547)
(-0.0138425 0.0445078 -0.0750339)
(0.16274 -0.499331 0.0436265)
(-0.0406436 0.0669454 -0.100219)
(0.25337 -0.49287 0.0298429)
(-0.0320169 0.0852275 -0.186419)
(0.22169 -0.504045 0.0564279)
(-0.01389 0.0313863 -0.064645)
(0.273736 -0.581529 0.0899782)
(-0.0134363 0.0336525 -0.012956)
(-0.00241892 0.00510624 0.0010274)
(-0.00595301 0.00706931 -0.000259716)
(0.321137 -0.609623 0.16268)
(-0.00157941 0.00364956 0.00222254)
(-0.000856069 0.00391513 0.002936)
(0.250881 -0.588443 0.216947)
(-0.00671459 0.00375728 0.00650853)
(0.342684 -0.598293 0.179555)
(-0.00976956 0.0215613 -0.0627508)
(0.373603 -0.598176 0.214476)
(0.0377164 0.0789028 -0.222063)
(0.294332 -0.59112 0.250439)
(0.000510354 0.0101957 -0.0519113)
(0.0299411 0.00894638 -0.0819569)
(0.0911851 0.0596782 -0.245065)
(0.159767 0.0127059 -0.291577)
(0.316512 -0.57794 0.148548)
(-0.000573967 0.0112812 0.00788189)
(0.35699 -0.60168 0.139336)
(0.0225018 0.0152282 -0.0336489)
(0.287494 -0.542691 0.162001)
(-0.0419885 0.100958 -0.0137868)
(-0.126659 0.137638 -0.0318779)
(-0.0709683 0.0818938 -0.0237472)
(-0.0124064 0.0258497 -0.000416611)
(0.372633 -0.576465 0.141608)
(-0.0424246 0.0386992 -0.0130613)
(-0.00128661 0.0149484 0.00554625)
(-0.0174773 0.0258071 -0.00252893)
(-0.00444961 0.0103186 -0.000368966)
(-0.0389202 0.0413723 -0.0177161)
(0.00410508 0.012887 0.000916284)
(0.255993 -0.577844 0.071196)
(-0.017336 0.0207303 -0.00208061)
(-0.000319595 0.00849202 -0.00353975)
(0.231129 -0.617972 0.0932595)
(-4.0698e-06 4.94534e-05 0.000546195)
(0.203413 -0.552937 0.105407)
(-0.000178179 1.61728e-05 0.00078599)
(0.244705 -0.588332 0.12557)
(-0.000635769 0.000148136 0.00141718)
(0.191028 -0.567564 0.0825334)
(8.46165e-05 -0.000191301 0.00038226)
(0.000346185 -0.000479284 0.000542527)
(2.40006e-05 -9.89124e-05 0.000788267)
(0.188161 -0.652072 0.122452)
(-1.98079e-05 -4.50528e-05 0.000113187)
(2.41971e-05 -0.00014655 4.76953e-05)
(0.000265539 -0.000530735 0.000176415)
(0.222566 -0.670241 0.0718472)
(9.31272e-05 -0.000121798 9.21587e-05)
(5.27019e-06 -8.93892e-06 4.39584e-05)
(-0.00260148 0.00555699 0.00104226)
(0.196275 -0.729579 0.0485481)
(-0.00760584 0.00673977 -0.00101932)
(-0.00642063 0.0103373 -0.00291991)
(-0.00210077 0.0024109 0.00383124)
(0.173996 -0.700259 0.102521)
(0.000884459 0.000190041 0.00373479)
(-0.00087471 0.00148554 0.00277398)
(0.000364251 -0.000418502 0.00181835)
(0.153002 -0.758217 0.0674101)
(0.00073717 -0.00114036 0.00215319)
(0.188534 -0.746227 0.221056)
(-9.79657e-05 -5.10938e-06 0.00349201)
(0.195711 -0.803348 0.220431)
(-0.000938363 0.000159824 0.00242325)
(0.180427 -0.827513 0.171919)
(-0.00116904 0.000526591 0.00307435)
(0.26 -0.622464 0.172132)
(-0.00190227 0.00111843 0.0043698)
(-0.001049 0.000433078 0.00175708)
(0.245905 -0.667722 0.21239)
(-0.00116254 0.000335338 0.00146503)
(-0.00237242 0.000689559 0.00353361)
(-0.000242869 -0.000403637 0.00165043)
(0.190755 -0.722851 0.153017)
(0.000166052 0.00470674 0.00281996)
(0.00254095 -0.00112108 0.0012351)
(0.00253856 -0.00127354 0.00097746)
(0.207192 -0.746762 0.273718)
(0.00268753 -0.00110671 2.98936e-05)
(0.000396247 -0.000783757 0.00061317)
(0.00159725 -0.00179327 0.000919093)
(0.000966807 -0.000713984 0.000651899)
(0.00124658 -0.00136537 0.000383356)
(0.167708 -0.841654 0.181419)
(0.00263448 -0.00287816 -0.000426018)
(0.16751 -0.844031 0.0970803)
(0.00162423 -0.00128647 -0.000126846)
(0.121601 -0.784642 0.0774747)
(0.158212 -0.865104 0.082869)
(0.00379562 -0.00239716 -0.00291237)
(0.141666 -0.821096 0.0132388)
(0.00471541 -0.00217026 8.06625e-05)
(0.00465708 -0.0034641 -0.000650101)
(0.00424223 -0.00244196 -0.00169488)
(0.16213 -0.757963 0.132462)
(0.00654989 -0.00499098 -0.00416541)
(0.00742721 -0.00353799 -0.00235308)
(0.00301184 -0.00262486 -0.000770047)
(0.123371 -0.819454 0.0744529)
(0.00464356 -0.00344266 -0.00185662)
(0.000706111 -0.000738295 0.000272862)
(0.00327362 -0.00267288 -0.000782706)
(0.00405132 -0.00189642 -0.000694808)
(0.00196552 -0.00146239 0.000897303)
(0.00199669 -0.00159075 4.86054e-05)
(-1.02816e-05 -1.40498e-05 -7.20681e-07)
(0.25419 -0.565641 0.071152)
(3.16134e-05 -3.20773e-05 5.93773e-05)
(-2.70227e-06 -4.42262e-07 7.09222e-06)
(0.220625 -0.549792 0.0982842)
(6.31513e-05 -0.000200188 6.24206e-05)
(0.000364817 -0.000473095 4.51516e-05)
(0.000133947 -0.0001634 5.32781e-05)
(0.000808484 -0.000873231 9.132e-05)
(0.000367727 -0.000372145 8.48294e-05)
(1.53269e-05 3.22642e-06 2.80515e-05)
(7.57057e-05 -9.18302e-05 4.60001e-05)
(0.0018584 -0.0011343 0.000183193)
(0.00130306 -0.00154372 0.000106898)
(0.000933299 -0.000791275 0.00025862)
(0.00120774 -0.000851705 0.000275148)
(0.000487995 -0.000418777 0.000121013)
(4.45305e-05 0.000104331 0.00023122)
(-4.17069e-07 1.88655e-05 0.000247532)
(-0.000293723 0.000190388 0.000919646)
(1.34176e-06 1.69847e-05 1.16989e-06)
(1.44348e-05 1.10541e-05 2.22582e-05)
(1.05664e-05 -4.00552e-07 1.52395e-05)
(-3.61281e-05 -3.96644e-05 5.31662e-05)
(2.61553e-06 -1.84623e-06 -5.0274e-07)
(4.23046e-06 -2.31556e-06 5.12017e-06)
(-4.19745e-06 2.49999e-06 1.32875e-05)
(8.88093e-07 -3.50228e-07 -2.52006e-06)
(-1.29586e-06 -2.1797e-06 -3.25902e-06)
(1.55392e-06 -5.53893e-07 2.28283e-06)
(-0.00166625 0.000361519 0.00202753)
(-0.00224888 0.0011807 0.00232071)
(-0.00283368 0.00150123 0.00333438)
(-8.50671e-05 0.000136552 0.000698624)
(-0.000755028 0.000485499 0.00161492)
(-0.000374811 0.000382179 0.00137726)
(-0.00327275 0.00259332 0.00250504)
(-0.00276864 0.0019791 0.00375594)
(-0.00184147 0.00122485 0.00318386)
(-0.000998117 0.000772683 0.00293163)
(-0.000180391 0.000657723 0.00288736)
(-0.00116212 0.000638554 0.00360484)
(6.96275e-05 0.0012225 0.00561804)
(9.69543e-06 -1.79844e-05 7.52908e-05)
(-5.9915e-05 -2.41609e-05 0.000211727)
(6.28167e-05 -6.15163e-05 0.000394543)
(2.31547e-05 -5.77507e-05 0.000205589)
(-7.62064e-05 2.78499e-06 0.000479256)
(-4.33059e-06 -5.01178e-06 -4.9615e-06)
(0.000131314 -9.82168e-05 0.000120336)
(4.01659e-05 -3.80722e-06 2.92863e-05)
(7.21104e-05 -0.000143142 0.00106596)
(0.00174469 -0.000753195 0.002537)
(0.000628923 -9.20141e-05 0.00227482)
(0.000777646 -0.00118339 0.00162982)
(0.000862339 -0.000881354 0.000860629)
(0.000429382 -0.000201297 0.000415702)
(-3.07035e-06 3.74243e-06 -5.25568e-06)
(-5.34068e-06 5.03448e-06 -6.43524e-06)
(-4.54553e-06 2.96596e-06 -1.1685e-06)
(-8.3788e-07 3.26932e-06 -3.66121e-06)
(-6.00027e-07 2.00159e-06 -3.19218e-06)
(-2.19602e-06 3.84849e-06 -2.60781e-06)
(-5.57736e-06 6.07295e-06 -1.83268e-06)
(-8.37371e-06 9.91841e-06 5.23767e-06)
(-7.64003e-06 5.9931e-06 -3.01393e-08)
(-2.93744e-06 4.65e-06 -2.12295e-06)
(-1.71759e-06 4.49318e-06 -2.46882e-06)
(-4.41904e-06 5.1776e-06 -4.18456e-07)
(-4.744e-06 -3.95852e-05 3.59041e-05)
(-5.3939e-06 7.94751e-06 -5.723e-06)
(5.48648e-05 -4.69625e-05 2.22359e-05)
(1.42668e-05 1.17526e-05 1.09482e-05)
(8.29204e-06 -1.18969e-05 1.91722e-05)
(-1.81556e-06 -8.41794e-08 4.93045e-06)
(-2.98227e-06 6.07591e-06 3.68408e-06)
(-8.82562e-06 1.03379e-05 5.7739e-06)
(-8.05091e-06 1.08044e-05 4.71038e-06)
(-3.35418e-06 1.11311e-05 -4.89114e-06)
(-5.43258e-06 1.1378e-05 -2.84509e-08)
(0.000619528 -0.000557067 0.000230205)
(0.000261086 -8.12814e-05 7.01385e-05)
(0.000223313 -0.000187997 8.3639e-05)
(0.876881 2.11138 -0.702724)
(0.73719 2.33969 -0.427857)
(1.01949 2.3547 -0.211305)
(0.730398 2.83069 -0.577099)
(0.918319 2.20346 -0.42158)
(0.992306 2.46417 -0.153568)
(1.04619 2.66591 -0.977927)
(1.33551 2.98468 -0.68291)
(0.380575 -0.551354 0.303542)
(1.28957 3.44818 -0.381244)
(0.47901 -0.68353 0.433243)
(1.29903 3.08393 -0.653069)
(0.297584 -0.56753 0.429941)
(1.27237 3.38382 -1.17569)
(0.296152 -0.725432 0.336747)
(1.56944 3.74988 -1.01567)
(0.279041 -0.828198 0.375218)
(1.44709 3.59135 -0.799075)
(0.249751 -0.781454 0.355349)
(1.54743 3.85145 -1.65807)
(0.275139 -0.599108 0.332344)
(1.65708 3.89584 -1.30405)
(0.378508 -0.8037 0.465272)
(1.23149 3.29113 -0.900309)
(0.267819 -0.623277 0.373125)
(0.945483 3.70008 -0.766657)
(1.26406 3.45226 -0.711207)
(1.18729 3.58215 -0.705391)
(0.226383 -0.757099 0.357205)
(1.31184 4.43841 -1.16299)
(0.379135 -0.656357 0.292868)
(1.17702 3.81696 -1.14043)
(0.428761 -0.730925 0.377794)
(0.310063 0.14592 -0.153033)
(0.28631 -0.676341 0.403273)
(0.180913 -0.0148755 -0.0932165)
(0.223507 0.0979884 0.0172527)
(0.229391 0.0124394 -0.0137253)
(0.152641 -0.0516917 -0.0492885)
(0.23846 -0.0265271 0.110583)
(0.147216 0.169898 -0.399882)
(0.112534 -0.0559477 -0.346911)
(0.114257 0.194871 -0.340945)
(0.154373 -0.0190162 -0.282698)
(0.163569 0.190053 -0.239679)
(0.253134 -0.487601 0.292742)
(0.195255 0.110806 -0.33926)
(0.346001 -0.59832 0.404837)
(0.138051 -0.132046 -0.227705)
(0.216238 -0.525154 0.330286)
(0.124583 0.114884 -0.295364)
(0.032097 0.191831 -0.463264)
(0.349486 -0.48248 0.348716)
(-0.0110043 -0.0550511 -0.396745)
(0.17167 -0.445294 0.280421)
(0.294561 0.153214 -0.130553)
(0.121065 -0.0651716 -0.0683357)
(0.173155 0.106367 0.024412)
(0.101813 0.0400178 -0.173978)
(0.323891 -0.42843 0.258961)
(0.123719 -0.0695885 -0.213814)
(0.442812 -0.497579 0.364579)
(0.115267 0.14511 -0.193143)
(0.297146 -0.44303 0.375912)
(0.0324609 0.0133341 -0.141958)
(0.211172 0.195407 -0.257227)
(0.0742952 -0.104178 -0.139626)
(-0.000169152 0.146797 -0.168138)
(0.0694885 0.20062 -0.268097)
(-0.0303187 -0.0413888 -0.211176)
(0.0876488 0.103033 -0.352889)
(0.0683207 -0.125107 -0.304254)
(-0.162632 0.198161 -0.431379)
(-0.169354 -0.154244 -0.377184)
(-0.0157898 0.0771252 -0.281977)
(-0.020581 -0.180018 -0.252037)
(0.208721 -0.612803 0.348906)
(-0.261822 0.183052 -0.259151)
(-0.259562 -0.185968 -0.237231)
(0.00278793 -0.0270693 -0.232769)
(-0.119757 -0.0788884 -0.24567)
(0.221017 0.21997 -0.153115)
(0.0252817 -0.033402 -0.039988)
(0.086119 0.15216 -0.0205761)
(-0.189063 0.0743928 -0.00600503)
(-0.0192375 0.14322 0.0734112)
(-0.457706 0.222311 0.035637)
(-0.239873 0.2076 0.115128)
(-0.991176 0.472715 0.0362067)
(-0.685455 0.240203 0.101451)
(0.1077 -0.0594914 -0.0479575)
(0.138399 0.0262383 0.0849802)
(0.0742645 -0.0541888 -0.048774)
(0.101182 0.00172738 0.0914326)
(0.146801 -0.0146783 0.110054)
(0.101484 0.0289849 0.0976942)
(-0.148974 0.10094 -0.0800907)
(-0.085149 0.0144799 -0.0424209)
(-0.00850783 -0.0196025 0.18672)
(0.442376 -0.592464 0.262457)
(-0.13273 0.0923714 -0.104004)
(0.453905 -0.617692 0.253927)
(-0.0637485 0.0284289 0.141591)
(0.369618 -0.582893 0.346723)
(-0.563654 0.131795 -0.0101205)
(0.434992 -0.496096 0.264204)
(-0.587284 0.211482 -0.0506709)
(0.508673 -0.557658 0.279629)
(-0.104599 0.0970749 -0.179128)
(0.377537 -0.471888 0.344033)
(-0.397338 0.245118 -0.0767398)
(-0.22656 0.666573 -0.358752)
(-0.719057 0.30574 -0.246706)
(-0.520275 0.520416 -0.1228)
(0.419906 -0.580457 0.203504)
(-0.294552 0.125824 -0.196224)
(0.437431 -0.555503 0.197766)
(-0.469504 0.8711 -0.152302)
(-1.09748 0.586415 -0.162434)
(0.443556 -0.513694 0.207245)
(-0.731189 0.685709 0.0356168)
(0.516178 -0.537647 0.219472)
(-1.90896 1.38957 -0.205818)
(-1.4054 0.929968 0.182061)
(-1.27707 0.894169 -0.393818)
(-1.99206 1.52739 -0.347439)
(-0.027241 0.251001 -0.236341)
(-0.206403 -0.103373 -0.279271)
(-0.3793 0.140503 -0.309382)
(-0.0444199 0.093951 -0.10785)
(-0.103701 -0.212232 -0.184193)
(-0.241153 0.0586233 -0.0826456)
(-0.221323 0.20826 -0.00678419)
(-0.294474 -0.156932 -0.104277)
(-0.325685 0.139234 0.0939914)
(-0.132766 0.249888 0.0492278)
(-0.306335 -0.0592094 -0.0303237)
(-0.256482 0.1924 0.171976)
(-0.245259 -0.0590256 -0.21263)
(-0.159918 0.196268 -0.102605)
(-0.2882 -0.128779 -0.168111)
(-0.235137 0.14197 0.0244942)
(-0.521387 0.0476211 -0.244409)
(-0.522004 0.162051 -0.185757)
(-0.0138458 0.239783 0.0710191)
(-0.171835 0.0250654 0.0239801)
(-0.00210816 0.144777 0.0869504)
(-0.366824 0.0646653 -0.0654653)
(-0.110405 0.0967277 0.00967486)
(-0.401443 0.698345 -0.379021)
(-0.839844 0.372054 -0.472505)
(-0.858109 0.518861 -0.64154)
(-0.486603 0.11992 -0.299132)
(-0.434432 0.389863 -0.314151)
(-0.651989 -0.0187405 -0.345393)
(-0.684214 0.196194 -0.298767)
(-1.01418 0.263023 -0.467217)
(-1.41778 0.88327 -0.445543)
(-2.04005 1.46705 -0.455544)
(-1.09174 0.923449 -0.573888)
(-1.46016 0.559798 -0.557753)
(-1.20696 0.476289 -0.612131)
(-2.07188 1.23955 -0.463652)
(-0.71491 0.409711 -0.343684)
(-0.901646 -0.0568045 -0.351753)
(-0.585761 0.0896623 -0.0534053)
(-1.34695 0.881917 -0.453514)
(-1.73367 0.70413 -0.439159)
(-1.2494 0.462063 -0.248472)
(-1.03605 0.245993 -0.384093)
(-0.80997 0.163796 -0.18805)
(-1.18057 0.386077 -0.145324)
(-0.433564 0.349859 -0.185096)
(-0.676503 -0.000596295 -0.173638)
(-0.450308 0.163834 0.031678)
(-0.58807 0.17473 -0.0260152)
(-0.279869 0.149237 -0.0164396)
(-0.505825 0.312845 -0.00894335)
(-0.789459 0.26322 -0.0392764)
(-1.17895 0.453325 0.000150555)
(-0.926025 0.500527 -0.00130885)
(-1.80564 0.993898 -0.123307)
(-1.32353 0.659075 0.106047)
(-0.202641 0.107015 0.0142366)
(-0.197702 0.08758 0.00870361)
(-0.193928 0.091873 -0.0045824)
(-0.197959 0.133804 0.00545533)
(-0.196271 0.0949201 0.0149684)
(-0.181837 0.100186 0.00725251)
(-0.197761 0.112579 0.0245283)
(-0.163172 0.063016 0.0332295)
(-0.169752 0.0823537 0.0152122)
(-0.192506 0.114649 0.0137446)
(-0.193758 0.0912674 -0.00288027)
(-0.180481 0.0912087 -0.000227012)
(-0.182358 0.121245 0.0101243)
(-0.165638 0.0743464 0.0195851)
(-0.16615 0.0923597 0.00976544)
(-0.157653 0.0737775 0.0322462)
(-0.304889 0.242307 0.0854325)
(0.290364 -0.86981 0.345523)
(-0.249509 0.133129 0.0817631)
(0.201042 -0.825281 0.252304)
(-0.278603 0.174998 0.0774875)
(-0.525534 0.324075 0.165625)
(-0.368873 0.277076 0.108604)
(0.186411 -0.894795 0.274494)
(-0.402669 0.261662 0.143568)
(-0.527925 0.439158 0.103424)
(-0.386557 0.33597 0.109882)
(0.208367 -0.83324 0.28706)
(-0.40133 0.374407 0.139125)
(-0.347563 0.256961 0.119051)
(-0.704554 0.580583 0.214289)
(0.216599 -0.831188 0.258176)
(-0.541176 0.416926 0.141759)
(-0.979804 0.655968 0.285063)
(-0.690298 0.635223 0.108049)
(-0.730369 0.534517 0.224702)
(-1.08213 0.672284 0.235247)
(-0.859418 0.637903 0.119132)
(-0.8738 0.54691 0.203117)
(-0.848903 0.550721 0.22788)
(-0.603017 0.360868 0.173137)
(-0.484576 0.307722 0.134783)
(-0.705993 0.338126 0.129874)
(-0.568884 0.344886 0.147486)
(-0.576151 0.294399 0.119745)
(-0.669353 0.478084 0.227474)
(-0.772866 0.442512 0.214156)
(0.190249 -0.891684 0.190641)
(-0.205914 0.137261 0.0473906)
(0.143779 -0.831073 0.0951795)
(-0.177337 0.123236 0.000252926)
(0.182606 -0.882065 0.110889)
(-0.161905 0.113117 0.00815378)
(-0.256926 0.149827 0.0770218)
(-0.195757 0.115004 0.0298265)
(0.228345 -0.828701 0.192052)
(-0.187061 0.117591 0.0281535)
(0.210865 -0.80024 0.100494)
(-0.173123 0.130538 0.0179524)
(0.230157 -0.815359 0.117576)
(-0.258934 0.193169 0.0428674)
(-0.233606 0.149456 0.0138251)
(-0.187449 0.123913 0.0120481)
(-0.309401 0.212203 0.0443286)
(-0.267511 0.178373 0.0376618)
(-0.251846 0.168981 0.0488736)
(-0.257588 0.18324 0.0224387)
(-0.297841 0.155884 0.0918164)
(-0.253741 0.115761 0.077614)
(-0.269128 0.148488 0.0821749)
(-0.267091 0.14691 0.0748251)
(-0.264163 0.135463 0.101625)
(-0.279037 0.160942 0.0773172)
(-0.298156 0.154177 0.0568373)
(-0.257459 0.133742 0.0848056)
(-0.264751 0.13498 0.0613108)
(-0.294291 0.175972 0.0839989)
(-0.250036 0.155237 0.0331379)
(0.252236 -0.781299 0.182508)
(-0.213673 0.121815 0.0487354)
(-0.170389 0.118744 -0.00118554)
(-0.176704 0.0980929 -0.00784514)
(-0.154441 0.0965458 -0.0204127)
(-0.182478 0.134323 0.0205985)
(-0.16645 0.11237 -0.0219855)
(-0.148923 0.108313 -0.0081741)
(-0.165404 0.114523 -0.0115412)
(-0.198622 0.111488 -0.00951556)
(-0.180159 0.0973684 -0.00144067)
(-0.20966 0.0981288 -0.00178178)
(-0.178014 0.110859 -0.0130117)
(-0.216266 0.107706 -0.00923631)
(-0.163551 0.127134 -0.00154711)
(-0.16664 0.12778 -0.00922859)
(-0.159827 0.13508 0.000813084)
(-0.166457 0.142926 -0.00443599)
(-0.185771 0.13068 -0.0137994)
(-0.233353 0.132397 -0.0145601)
(-0.188502 0.15157 -0.00984622)
(-0.244062 0.159015 -0.0192621)
(0.219024 -0.768445 0.164773)
(-0.206836 0.160626 -0.000488903)
(0.26482 -0.76375 0.10662)
(-0.193154 0.114017 0.00250097)
(0.2593 -0.758279 0.10714)
(-0.164199 0.111517 -0.0129371)
(-0.206075 0.123244 -0.0121321)
(-0.221362 0.16764 0.015639)
(0.280352 -0.713505 0.127809)
(-0.224159 0.120769 0.00511236)
(0.313543 -0.756909 0.1097)
(-0.28543 0.140651 0.091928)
(0.274541 -0.73922 0.0998406)
(-0.236405 0.128355 0.0621861)
(-0.231556 0.127057 0.0502028)
(-0.3057 0.162469 0.0952375)
(-0.240067 0.146875 0.0402526)
(-0.202102 0.131159 0.0424072)
(-0.167698 0.132699 0.0165153)
(-0.199947 0.137705 0.0409197)
(-0.158824 0.137319 0.0226392)
(-0.338607 0.162205 0.0761482)
(-0.259213 0.162426 0.0709057)
(-0.247975 0.138428 0.0252539)
(-0.205698 0.141337 0.0571442)
(-0.205356 0.132876 0.0312669)
(-0.155628 0.130069 0.0161367)
(-0.373892 0.233055 0.11916)
(-0.318521 0.162299 0.0819872)
(-0.365395 0.196287 0.133476)
(-0.421109 0.207075 0.138395)
(-0.461872 0.208897 0.181316)
(-0.322868 0.1808 0.101447)
(-0.225542 0.14995 0.0686087)
(-0.153139 0.140126 0.00612516)
(-0.155235 0.145198 0.00210356)
(-0.1403 0.138557 0.0147677)
(-0.141166 0.145005 0.0117008)
(-0.180786 0.164509 -0.00235623)
(-0.309913 0.184518 -0.0168234)
(-0.245708 0.184549 0.00146931)
(-0.22398 0.164747 -0.00919861)
(-0.190238 0.168206 -0.0169739)
(-0.172567 0.15123 0.0223141)
(-0.151636 0.146928 0.0122643)
(-0.138775 0.130004 0.032632)
(-0.132575 0.129992 0.00971395)
(-0.136005 0.14222 0.00282645)
(-0.135859 0.130396 0.0330618)
(-0.125735 0.132791 0.0182915)
(-0.295488 0.197571 -0.00711827)
(-0.257314 0.178982 0.00895753)
(-0.221354 0.168012 0.005311)
(-0.139637 0.129126 0.0378299)
(-0.14559 0.144722 0.0226418)
(-0.166907 0.117997 0.0335489)
(-0.128038 0.124037 0.0323008)
(-0.173032 0.166579 0.0121299)
(-0.203622 0.126499 0.0358144)
(-0.199864 0.189273 -0.00232024)
(-0.195418 0.145124 0.0124543)
(-0.155412 0.138786 0.0240484)
(-0.224632 0.168084 0.0190636)
(-0.267177 0.214474 -0.00204557)
(-0.237946 0.17236 -0.00521326)
(-0.229247 0.179384 0.0185822)
(-0.196955 0.144243 0.019362)
(-0.193978 0.0952912 0.0176118)
(-0.199061 0.150978 0.0180494)
(-0.196036 0.098027 0.0184185)
(-0.177629 0.122863 0.0220001)
(-0.157656 0.0764426 0.0233731)
(-0.14569 0.0688875 0.0322467)
(-0.17482 0.126437 0.0208231)
(-0.153696 0.0798364 0.027691)
(-0.14007 0.0742896 0.0296892)
(-0.19447 0.146396 0.0161577)
(-0.193125 0.100243 0.0188429)
(-0.197665 0.14233 0.0127049)
(-0.169992 0.0944332 0.00629536)
(-0.165534 0.116697 0.0190103)
(-0.171597 0.120947 0.0220252)
(-0.15702 0.076188 0.0212466)
(-0.151075 0.0975705 0.0255005)
(-0.140381 0.0838297 0.0239057)
(-0.155336 0.109639 0.0124865)
(-0.139875 0.0749464 0.0145452)
(-0.142322 0.0922413 0.0181029)
(-0.174113 0.105639 0.0169667)
(-0.162208 0.106945 0.00170467)