/*--------------------------------*- C++ -*----------------------------------*\
| =========                 |                                                 |
| \\      /  F ield         | OpenFOAM: The Open Source CFD Toolbox           |
|  \\    /   O peration     | Version:  5.0                                   |
|   \\  /    A nd           | Web:      www.OpenFOAM.org                      |
|    \\/     M anipulation  |                                                 |
\*---------------------------------------------------------------------------*/
FoamFile
{
    version     2.0;
    format      ascii;
    class       volVectorField;
    location    "60";
    object      wallShearStressRest;
}
// * * * * * * * * * * * * * * * * * * * * * * * * * * * * * * * * * * * * * //

dimensions      [1 -1 -2 0 0 0 0];

internalField   uniform (0 0 0);

boundaryField
{
    Wall_Aorta
    {
        type            calculated;
        value           nonuniform List<vector> 
78862
(
(0.0800449 0.364894 -0.303027)
(0.0511773 0.223886 -0.284305)
(0.0281847 0.0761031 -0.11916)
(0.00635158 0.0318433 -0.0708521)
(4.34445e-07 -9.42663e-07 -1.66855e-06)
(2.88186e-07 5.11564e-07 -7.45052e-07)
(-0.0617159 0.0486331 0.0164343)
(-0.0648473 0.0499957 0.0182646)
(-0.355739 0.155547 -0.0241635)
(-0.35379 0.157783 -0.0584171)
(-0.788752 0.236556 -0.0778151)
(-0.724439 0.235307 -0.0577923)
(-0.0522576 0.325093 -0.129432)
(-0.0491833 0.262351 -0.110624)
(0.145672 2.11594 -0.587168)
(0.399275 2.30233 -0.538116)
(0.340118 1.45799 -0.305562)
(0.422499 1.28813 -0.332581)
(0.33776 1.05843 -0.0955895)
(0.33541 1.3863 -0.332743)
(-0.322792 0.180664 -0.0110465)
(-0.328964 0.175817 0.0175377)
(-0.286991 0.173434 0.0027873)
(0.261766 0.0782689 -0.181952)
(-0.333556 0.200438 0.0327151)
(0.0164869 -0.0772878 -0.0150968)
(0.0149645 -0.0728327 -0.0119829)
(-0.151924 0.422808 0.0470635)
(-0.124266 0.403203 0.0441087)
(0.701659 2.16426 0.653409)
(1.17502 2.08562 0.570148)
(0.958221 1.53364 -0.440201)
(1.26624 1.59026 -0.327496)
(0.205079 0.389997 -0.173307)
(1.25707 1.30083 -0.22437)
(0.156437 0.341693 -0.145424)
(0.246148 0.0527229 -0.172836)
(0.00463031 -0.00862454 0.0211144)
(0.00480798 -0.00777317 0.0222989)
(-0.000675213 -0.00762185 0.0189351)
(-0.00367399 -0.00769335 0.0234631)
(-0.00295572 -0.00727181 0.0227955)
(0.00173992 -0.00495383 0.0196902)
(-0.00679944 -0.00998157 0.0330321)
(-0.00871054 -0.0186568 0.0385815)
(0.278934 0.0233237 0.0465377)
(0.303007 -0.135348 0.0542397)
(0.339471 -0.0572742 0.0665487)
(-0.281374 0.216257 -0.0274664)
(-0.31018 0.23521 -0.0274123)
(0.186765 0.0925402 -0.244814)
(-0.0897258 0.0420218 -0.169741)
(-0.113743 0.0614054 -0.171752)
(-0.0669427 0.0356005 -0.0304261)
(-0.0555678 0.0288832 -0.0319464)
(0.926925 0.725661 -0.134531)
(1.07807 1.08421 -0.0190744)
(1.28068 1.06169 0.0283865)
(0.276015 0.207642 -0.381926)
(0.950794 0.690223 -0.199019)
(1.89684 1.19586 0.141344)
(1.68793 1.29677 0.131014)
(1.88234 3.01689 0.283516)
(2.49111 3.52565 -0.100602)
(2.66818 3.41175 0.974939)
(3.17046 3.70588 0.837407)
(3.09553 3.73267 0.489785)
(1.94122 3.70365 0.112771)
(3.18476 3.82145 0.172684)
(2.27312 3.61466 -0.769434)
(2.23462 3.82649 -0.620498)
(1.99842 3.47901 -0.665035)
(0.975088 1.43115 -0.299842)
(0.901686 1.58588 -0.351934)
(1.23231 1.40204 -0.380509)
(0.0221252 0.0652463 -0.19006)
(0.0291319 0.0754197 -0.191883)
(0.0366018 0.0597597 -0.18738)
(0.0364063 0.0659125 -0.189304)
(-0.0226296 0.0693068 -0.136995)
(-0.018409 0.0615707 -0.146234)
(0.0231065 -0.0446659 -0.176223)
(0.0340306 -0.0529216 -0.181198)
(0.0802198 -0.113075 -0.19006)
(0.080369 -0.104113 -0.209983)
(0.0766724 -0.0994327 -0.1985)
(0.0770627 -0.0990705 -0.187182)
(2.24486 4.06001 -1.89634)
(2.80997 1.59682 -0.568435)
(2.46634 1.57632 -0.248522)
(2.42088 2.02599 0.0158371)
(6.87886 5.10317 0.723306)
(8.44682 8.63691 1.10981)
(6.27668 7.25265 1.50762)
(9.48876 8.63661 1.40313)
(-0.827968 0.673391 0.167945)
(-0.809299 0.770178 0.158382)
(-0.159428 5.50304 1.25767)
(0.088227 5.6315 1.52142)
(-1.40723 2.43951 1.48361)
(-1.29123 2.49212 1.42591)
(-1.4769 2.39984 1.43553)
(2.73218 4.34023 -1.71593)
(0.00343472 0.0131509 -0.0487885)
(0.00166221 0.0155314 -0.0493667)
(0.00288448 0.01747 -0.0545008)
(0.00210607 0.0166071 -0.054697)
(-0.00771901 0.0106587 -0.0477548)
(-0.00903935 0.0125211 -0.0471783)
(-0.00250391 0.0120612 -0.0538739)
(-0.00364789 0.0120888 -0.0529266)
(-0.0134862 0.0146609 -0.0431002)
(-0.0154701 0.0189822 -0.04342)
(0.700674 -0.0260059 -1.09546)
(0.473262 -0.0651337 -1.12622)
(1.27439 0.108803 -1.0839)
(1.17025 0.642761 -0.694958)
(0.841348 0.0541973 -1.21297)
(1.11025 0.43141 -0.904681)
(0.30545 0.0150105 -0.412612)
(0.315874 0.0850516 -0.473262)
(0.67219 0.278866 -0.30184)
(0.0453691 0.0420174 -0.0776362)
(0.608562 0.200556 -0.41449)
(0.0351709 0.0343852 -0.0765078)
(1.99012 0.823729 0.568292)
(2.14223 0.920226 0.436654)
(3.86524 1.73217 -1.52297)
(3.74728 1.37462 -1.76316)
(3.8869 1.2499 -2.00315)
(3.88952 1.21231 -2.17155)
(3.66291 1.37434 -3.07849)
(3.19774 2.12858 -3.27846)
(3.15002 1.83612 -2.89302)
(2.83408 2.17082 -3.11197)
(2.41548 1.33258 -2.16494)
(1.90928 0.7917 -1.95985)
(2.00439 0.877587 -1.936)
(-0.149618 0.573807 -1.89489)
(-0.133692 0.607204 -1.73358)
(0.240224 0.552374 -1.26853)
(0.381769 0.548116 -1.31393)
(0.336061 0.186905 -0.603935)
(0.329698 0.212376 -0.676611)
(-0.877516 4.3486 -5.2309)
(-0.6437 2.2832 -3.9138)
(-0.0855168 0.30531 -2.08316)
(-0.0221952 0.330525 -1.35371)
(-1.78472 1.10676 -1.52093)
(-1.88526 1.45562 -1.33296)
(-3.57712 4.69009 -2.80202)
(-3.21127 3.7436 -2.37963)
(1.15835 5.83727 -0.626082)
(1.28427 6.88192 -1.67482)
(1.50238 7.64615 -2.2378)
(2.29261 4.19148 -1.72382)
(0.961284 2.94406 -0.244347)
(1.64085 4.90181 -0.639092)
(3.43419 8.85516 -1.76428)
(0.333802 0.403879 -0.181888)
(0.311056 0.888447 -0.141792)
(0.570889 0.558279 0.0934442)
(0.623537 0.615838 0.115093)
(2.38667 3.75304 -1.29057)
(1.9476 3.57554 -1.44116)
(0.872893 1.2744 -0.398471)
(0.933713 1.4704 -0.520684)
(0.584524 1.90076 -0.10529)
(0.935408 2.11282 -0.31612)
(0.292948 1.39542 -0.124684)
(0.334592 1.60317 -0.364001)
(0.00163865 1.03615 -0.0850222)
(-0.0264405 0.830664 -0.0592198)
(0.741912 7.31272 -1.05709)
(-2.29034 0.731383 -3.03881)
(-2.45308 0.5516 -3.10134)
(-2.03187 0.592392 -2.71725)
(-1.09312 0.432264 -1.56905)
(-1.09476 0.522081 -1.50113)
(-0.768514 0.791521 -1.31408)
(-0.738963 0.844805 -1.30249)
(-0.534758 1.65566 -2.88522)
(-0.875254 2.38452 -3.52041)
(-1.33173 2.9279 -5.13208)
(-1.39918 3.56525 -6.13442)
(0.207968 1.37543 -3.81675)
(0.440486 1.41424 -4.32301)
(2.05071 -0.306887 -2.87301)
(1.9804 -0.168433 -2.36036)
(1.27935 -0.207767 -1.47534)
(0.863186 0.00731311 -0.978847)
(0.916792 -0.0260582 -0.959797)
(1.23859 -0.106003 -1.51375)
(1.08503 -0.164637 -1.21875)
(1.05429 -0.148555 -1.0833)
(0.975509 -0.0720017 -1.09999)
(0.987201 -0.0828175 -1.05476)
(1.13935 -0.131232 -1.09856)
(0.981094 -0.0746646 -0.80927)
(1.07685 -0.0618366 -0.868411)
(1.17518 -0.0323245 -1.0438)
(1.09801 0.08945 -1.05138)
(1.00344 0.0769771 -0.763086)
(1.00757 0.0162176 -0.871884)
(1.01649 0.00457677 -0.710497)
(0.948647 -0.035952 -0.819228)
(0.849758 0.0452516 -0.917834)
(0.916232 1.02249 -3.35355)
(0.58706 1.04354 -3.52368)
(3.00215 0.320874 -4.92157)
(3.50097 0.239117 -5.04568)
(0.339178 0.519565 -2.12162)
(0.55725 0.535932 -2.1307)
(3.40669 0.21714 -6.60688)
(16.5267 -5.89263 -25.6354)
(2.48654 0.224671 -2.82399)
(2.25732 0.336626 -2.14762)
(2.54647 -0.0233896 -1.22406)
(3.39078 -0.0419748 -1.15249)
(3.15364 -0.0886499 -1.09279)
(2.75172 -0.170948 -1.12531)
(1.04837 0.331223 -0.654729)
(1.0607 0.410846 -0.643288)
(1.28209 2.26178 -3.22775)
(1.59267 2.91493 -3.84407)
(1.64353 1.33054 -1.49536)
(1.42697 1.06819 -1.749)
(0.763996 1.17887 -1.86911)
(1.03203 1.00741 -1.59748)
(-0.0634455 0.239982 -0.326422)
(-0.0796914 0.238408 -0.170593)
(-0.0976553 0.224896 -0.193887)
(-0.0640318 0.245692 -0.314882)
(-0.240756 0.991841 -0.490287)
(-0.251307 0.774442 -0.458909)
(0.213043 0.282964 -0.159897)
(0.37919 0.344812 -0.221749)
(0.0411698 0.0770991 -0.0922998)
(0.0430778 0.0831064 -0.0797454)
(0.565921 2.20919 -1.32865)
(0.635833 2.41718 -1.22244)
(0.669916 0.220291 -0.368175)
(0.71768 0.27045 -0.395009)
(0.0482355 0.136405 -0.0357221)
(0.06002 0.110875 -0.0397068)
(2.64914 -2.43289 -1.8731)
(2.89122 -2.43674 -1.98822)
(2.57874 -2.60501 -1.81352)
(1.95756 -1.95323 -0.962394)
(1.94326 -1.82471 -1.15538)
(0.376133 -0.44359 -0.19455)
(0.402609 -0.437 -0.132362)
(0.394466 -0.375921 -0.0945065)
(1.00115 -0.27019 -0.0461558)
(0.315257 0.345682 -0.00533166)
(0.883773 0.0408043 -0.0393799)
(0.960671 0.0491636 -0.0125528)
(1.78452 0.603323 0.183202)
(1.68103 0.492109 0.277301)
(1.49605 0.426369 0.0150229)
(1.68201 0.557045 0.328153)
(1.49388 0.39779 0.0831248)
(-0.167951 0.127172 -0.198158)
(-0.172234 0.110623 -0.191162)
(-0.000313224 0.000134819 0.00474128)
(-6.22151e-05 -1.38032e-05 0.00462951)
(0.0540223 0.0788747 -0.133336)
(0.0508066 0.0819495 -0.137545)
(0.00793977 0.0398978 -0.107673)
(0.0168703 0.0389327 -0.103366)
(1.27281 0.395665 0.00805615)
(0.660484 -0.110913 -0.418407)
(0.719452 -0.0933878 -0.393728)
(0.791326 -0.11083 -0.468557)
(0.844272 -0.117041 -0.47894)
(0.776526 -0.16148 -0.205097)
(0.846466 -0.194533 -0.307013)
(0.551575 0.103173 -0.00471738)
(0.675663 0.14222 -0.0435147)
(0.653826 0.120481 0.00894247)
(0.497661 0.0720317 -0.0425314)
(0.582836 -0.0931273 -0.499999)
(0.63011 -0.0879139 -0.537557)
(0.0817204 -0.175645 -0.194092)
(0.0730857 -0.172939 -0.220821)
(0.706785 0.267229 -0.725589)
(0.60653 0.391297 -0.799676)
(0.745056 0.271926 -0.654797)
(0.00437844 -0.0691187 -0.03247)
(0.0077307 -0.087767 -0.0288057)
(0.697748 0.247669 -0.679613)
(-0.21331 0.961377 -1.04519)
(-0.0542971 1.05355 -1.18658)
(0.888095 0.149577 -0.559718)
(0.822657 0.152052 -0.480648)
(0.551364 0.0572683 -0.176556)
(0.540367 0.045808 -0.223046)
(0.147376 -0.125499 0.0478798)
(0.178483 -0.143529 0.0385477)
(0.175271 -0.119602 0.0425513)
(-0.00285945 0.130028 -0.130826)
(-0.0400938 0.144153 -0.121356)
(-0.0153503 0.163525 -0.173082)
(-0.0278573 0.0977903 -0.0772305)
(0.0558875 0.0285333 -0.00815087)
(0.0445342 0.0190178 -0.00617426)
(-0.0677401 0.105853 -0.0741081)
(-0.0460734 0.120947 -0.109633)
(0.0585257 0.0267672 -0.0127388)
(0.0433654 0.0220257 -0.0147788)
(-0.0147141 0.0951454 -0.089822)
(0.0458415 0.0202215 -0.015092)
(0.131469 -0.136926 0.0365903)
(-0.0288782 0.0740564 -0.0450445)
(0.151769 -0.127903 0.0386712)
(-0.067368 0.097089 -0.0529398)
(-0.0214478 0.0619042 -0.0473845)
(0.181302 -0.145947 0.035518)
(-0.0297664 0.0613974 -0.0271731)
(0.175177 -0.12075 0.0338243)
(-0.0653571 0.080521 -0.0337413)
(-0.0104792 0.0241503 -0.0176513)
(-0.0253763 0.0315073 -0.020956)
(-0.0192517 0.0327354 -0.0317018)
(0.00615738 0.143916 -0.165798)
(0.134169 -0.144858 0.0263681)
(0.0107521 0.199725 -0.2283)
(0.154105 -0.136731 0.0311423)
(0.0378514 0.155736 -0.197027)
(0.132148 -0.125354 0.0224343)
(0.180575 -0.151492 0.0299897)
(0.00837459 0.0776976 -0.1028)
(0.170178 -0.127201 0.0306272)
(0.148393 -0.121483 0.0193589)
(0.131056 -0.141654 0.0368765)
(0.0497316 0.185807 -0.251196)
(0.148331 -0.127132 0.0132419)
(0.120783 0.33873 -0.306121)
(0.072452 0.275738 -0.379113)
(0.115974 -0.12007 0.014986)
(0.0663199 0.0754084 -0.141001)
(0.13183 -0.132687 0.0186608)
(0.0937721 0.0927956 -0.17187)
(0.111215 -0.110343 0.0201226)
(0.0863901 -0.171233 0.0415159)
(0.127809 0.159067 -0.219086)
(0.0888024 -0.180137 0.0566797)
(0.12963 0.218885 -0.407277)
(0.0723889 -0.173536 0.0522219)
(-0.000122933 0.00270761 -0.00401675)
(0.0632263 -0.16043 0.0330813)
(-0.000815569 0.00539416 -0.00572428)
(0.0808345 -0.166047 0.0310631)
(0.000534133 0.00547118 -0.00874594)
(0.0642712 -0.144542 0.0208772)
(-0.00180062 0.0219735 -0.0320877)
(0.0489579 -0.152081 0.0166436)
(-0.0121063 0.0365112 -0.0393786)
(0.0720481 -0.151941 0.0133616)
(-0.00510885 0.037933 -0.0668962)
(0.0627667 -0.149809 0.0183867)
(-0.000329446 0.012803 -0.0283571)
(0.0794311 -0.17541 0.0264218)
(-0.00330846 0.0151085 -0.0118657)
(1.54691e-05 0.000871988 -0.00184624)
(0.000677872 0.00166784 -0.00522118)
(0.0907453 -0.17341 0.0364027)
(4.80616e-06 0.000570917 -0.000578722)
(0.000298719 0.000603418 -0.000609638)
(0.0734427 -0.160112 0.0477906)
(9.03057e-05 0.000149077 -0.00214751)
(0.0955414 -0.170012 0.0408145)
(0.00176589 0.00738499 -0.0258798)
(0.10448 -0.167236 0.0477823)
(0.0206943 0.0260194 -0.0745558)
(0.0833753 -0.159307 0.0519346)
(0.00485017 0.00245776 -0.0204715)
(0.0136982 0.00199278 -0.0294403)
(0.0331888 0.017592 -0.0777877)
(0.05039 0.00668262 -0.0918817)
(0.0892794 -0.169334 0.0394045)
(0.00135288 0.00159296 -0.00179768)
(0.100593 -0.179615 0.0365693)
(0.00817739 0.00261179 -0.0179223)
(0.0808811 -0.157694 0.0377526)
(-0.0273923 0.0493295 -0.00908117)
(-0.0610174 0.0697518 -0.0149978)
(-0.0388928 0.0416036 -0.0140033)
(-0.00773751 0.0148208 -0.00469804)
(0.106653 -0.170166 0.0363702)
(-0.0233059 0.0246681 -0.00893579)
(-0.00461128 0.0101249 -0.000124898)
(-0.0138646 0.0198902 -0.00326089)
(-0.0069404 0.00785551 -0.001885)
(-0.0280928 0.0291503 -0.00655525)
(-0.00630778 0.0109033 -0.000607576)
(0.0720499 -0.157411 0.0143678)
(-0.017345 0.0200734 -0.000139812)
(-0.00841 0.00928186 0.000394564)
(0.0667669 -0.163714 0.0206726)
(-2.98082e-06 9.15427e-06 0.000124397)
(0.0602198 -0.150386 0.0211582)
(-4.1688e-05 -9.49448e-07 0.000178584)
(0.069806 -0.160385 0.0292066)
(-0.000162028 3.31688e-05 0.000336588)
(0.0580895 -0.152808 0.0168246)
(1.7561e-05 -4.76208e-05 8.56659e-05)
(8.4867e-05 -0.000122906 0.000116098)
(9.49591e-06 -3.26614e-05 0.000176167)
(0.0608536 -0.169003 0.025185)
(-5.78829e-06 -1.14188e-05 2.85779e-05)
(7.49159e-06 -3.41736e-05 1.47841e-05)
(6.26704e-05 -0.000116136 4.21728e-05)
(0.068113 -0.174869 0.0136778)
(2.3726e-05 -2.68346e-05 2.38512e-05)
(2.35173e-06 -3.39836e-06 1.1727e-05)
(-0.00117056 0.00296497 -0.00234368)
(0.0633364 -0.18583 0.00818737)
(-0.00392834 0.00515122 -0.00368224)
(-0.00227884 0.00485312 -0.00599183)
(-0.000359077 0.00115007 -0.000727353)
(0.0595636 -0.177079 0.0208985)
(-0.00033009 0.00105249 5.66187e-05)
(-0.00254911 0.00300356 -0.000674142)
(1.63523e-05 -1.61878e-05 0.000191193)
(0.056205 -0.185688 0.0147842)
(-1.00374e-08 -3.42847e-05 8.35882e-05)
(0.0657825 -0.175207 0.0426561)
(-5.49466e-05 3.52534e-05 0.000172297)
(0.0652985 -0.191453 0.0443793)
(-0.000228863 2.83577e-05 0.00028412)
(0.0658413 -0.188669 0.0336795)
(-0.000200666 0.000162327 0.000210446)
(0.0754562 -0.165495 0.0340576)
(-0.000266768 0.000220383 0.000267697)
(-0.000261009 6.99016e-05 0.000307917)
(0.0750281 -0.172454 0.0440389)
(-0.000276859 8.06006e-05 0.000204039)
(-0.000449012 -4.64486e-06 0.000428121)
(-6.52066e-05 -8.23736e-05 0.000345622)
(0.0643913 -0.182144 0.0313505)
(0.000373516 0.00132265 -0.00284384)
(0.000316099 0.000410925 0.000124779)
(-0.000814045 0.00185825 -0.000261398)
(0.0695752 -0.18373 0.0532639)
(0.000124346 0.00022088 -0.000278803)
(8.68249e-05 -0.000155095 0.000129674)
(0.00025257 -0.000270078 0.000182689)
(0.000194547 -0.00012091 0.000119699)
(0.000267194 -0.000225309 6.1326e-05)
(0.0604312 -0.195506 0.0371186)
(0.000389716 -0.000559129 -0.00028188)
(0.0641934 -0.190875 0.0199719)
(0.000330438 -0.000263485 -5.0908e-05)
(0.05556 -0.176071 0.0192653)
(0.058529 -0.199167 0.017955)
(-0.00266478 0.0029537 -0.00151909)
(0.0565151 -0.185858 0.0025014)
(0.000629541 0.000284987 -0.000117061)
(-0.0006411 0.00118537 3.43465e-05)
(0.000257891 0.000118889 -0.000399669)
(0.0593594 -0.187478 0.0284103)
(-0.0021503 0.00273258 -0.000747682)
(0.000139884 0.000833291 -0.000426223)
(0.000527559 -0.000569445 -0.000241684)
(0.0514264 -0.197378 0.0189433)
(0.000735744 -0.000377741 -0.000446892)
(0.000163255 -0.000166679 3.99808e-05)
(0.000710241 -0.000395728 -0.000271769)
(0.000678353 6.79514e-05 -0.000565441)
(0.000251589 -0.000267823 0.000142639)
(0.00041239 -0.000271676 5.3623e-06)
(-8.56817e-07 -3.53826e-06 9.8189e-07)
(0.0724526 -0.163287 0.0189073)
(9.46139e-06 -1.07152e-05 1.33715e-05)
(4.86269e-07 -5.0169e-07 1.5544e-06)
(0.0630786 -0.152285 0.0244793)
(2.0486e-05 -4.66681e-05 1.70214e-05)
(8.91212e-05 -0.000112193 1.26331e-05)
(3.6356e-05 -3.98675e-05 1.21085e-05)
(0.000196465 -0.000203849 -6.62623e-07)
(0.000103682 -9.13336e-05 1.58388e-05)
(5.2224e-06 -2.70262e-06 6.49712e-06)
(2.75446e-05 -2.73953e-05 9.6455e-06)
(0.000374278 -0.000225025 3.97838e-05)
(0.0002686 -0.000335199 1.84647e-05)
(0.000212171 -0.000184454 3.19399e-05)
(0.00025534 -0.000201189 4.08771e-05)
(0.000117389 -0.000112895 1.90214e-05)
(8.39584e-06 2.36193e-05 4.98964e-05)
(1.45375e-06 6.61412e-06 5.2328e-05)
(-6.95926e-05 4.19415e-05 0.000205377)
(-2.5323e-07 4.2817e-06 1.42206e-06)
(2.97987e-06 2.06505e-06 4.96335e-06)
(2.93764e-06 4.81013e-07 3.39653e-06)
(-8.01947e-06 -8.74787e-06 1.3167e-05)
(7.08846e-07 -6.7524e-07 -7.00535e-09)
(1.06441e-06 -1.13013e-06 1.31536e-06)
(-4.70843e-07 4.02656e-07 3.41535e-06)
(2.00077e-07 -2.37551e-07 -3.61449e-07)
(-1.04257e-07 -4.02525e-07 -5.05656e-07)
(4.92925e-07 -2.02494e-07 9.03905e-07)
(-0.000424644 5.62463e-05 0.000298368)
(-0.000558714 0.000279945 0.000355144)
(-0.000482041 0.000287889 0.000159213)
(-1.9519e-05 3.83367e-05 0.00015577)
(-0.000198638 0.000133002 0.000359075)
(-9.25278e-05 0.000102386 0.00033565)
(-0.000684214 0.000656595 -0.000699011)
(-0.000660746 0.000633728 0.000259838)
(-0.000165566 0.000163328 -0.000824827)
(-0.000382847 0.000211689 0.000650224)
(-0.000631377 0.000619724 -0.000458167)
(-0.00056397 0.000459611 0.00019362)
(8.1265e-05 0.000579558 -0.000271861)
(3.69863e-06 -3.82147e-06 1.65425e-05)
(-1.29425e-05 -7.32546e-06 4.75189e-05)
(1.77443e-05 -1.74491e-05 9.03001e-05)
(5.03473e-06 -1.29051e-05 4.56607e-05)
(-1.73627e-05 -5.58624e-06 0.00011099)
(-4.53252e-07 -1.771e-06 -8.30573e-07)
(3.06776e-05 -2.75905e-05 3.00787e-05)
(8.69663e-06 -9.21563e-07 5.71171e-06)
(-1.53043e-05 -2.43511e-05 0.000238606)
(5.63198e-05 0.000197132 0.000490432)
(-4.14091e-06 2.51695e-05 0.000529786)
(2.82697e-05 -0.000161361 0.000312815)
(0.000104737 -0.000159485 0.000169653)
(6.99576e-05 -5.23536e-05 8.88609e-05)
(-3.64359e-07 4.23706e-07 -9.01609e-07)
(-8.5638e-07 6.00242e-07 -1.19258e-06)
(-7.38443e-07 2.87629e-07 -2.39666e-07)
(-7.20268e-08 4.53408e-07 -5.4673e-07)
(-2.43639e-08 3.41448e-07 -4.22294e-07)
(-3.26027e-07 4.3294e-07 -3.46908e-07)
(-7.14128e-07 7.25436e-07 -2.78043e-07)
(-8.29272e-07 1.40828e-06 1.12028e-06)
(-1.01086e-06 6.99558e-07 -3.36278e-08)
(-4.24808e-07 5.59586e-07 -2.87452e-07)
(-4.95668e-08 5.31593e-07 -3.24338e-07)
(-4.65696e-07 6.08832e-07 3.24499e-08)
(6.16546e-06 -1.04157e-05 7.65708e-06)
(-9.56896e-07 9.80524e-07 -1.24304e-06)
(2.01878e-05 -1.63874e-05 8.13776e-06)
(3.92525e-06 3.10985e-06 1.72733e-06)
(2.57296e-06 -2.24997e-06 3.87004e-06)
(3.26732e-07 -5.26912e-07 1.65263e-06)
(3.73611e-07 3.16516e-07 1.12478e-06)
(-8.27896e-07 1.2459e-06 9.36471e-07)
(-1.70932e-06 1.32979e-06 1.37755e-06)
(-2.87409e-07 1.55064e-06 -9.95684e-07)
(-5.19315e-07 1.72511e-06 -2.4442e-07)
(0.000118072 -0.000133958 6.26843e-05)
(5.89749e-05 -2.90099e-05 1.72919e-05)
(5.32413e-05 -5.04296e-05 1.28394e-05)
(0.275514 0.79591 -0.242113)
(0.256122 0.907967 -0.185624)
(0.296103 0.924063 -0.105857)
(0.263175 1.13673 -0.276625)
(0.302264 0.966403 -0.22765)
(0.304853 1.01143 -0.133813)
(0.341012 1.06232 -0.316657)
(0.405619 1.17044 -0.248945)
(0.117078 -0.155691 0.0623393)
(0.470639 1.33974 -0.20788)
(0.139397 -0.175204 0.0906689)
(0.420566 1.24223 -0.318848)
(0.0988253 -0.148282 0.0814069)
(0.442896 1.33253 -0.382105)
(0.0930859 -0.175836 0.0641865)
(0.493082 1.42241 -0.352157)
(0.0855701 -0.194772 0.0766262)
(0.476533 1.40113 -0.350579)
(0.0833182 -0.18062 0.0675981)
(0.562827 1.52363 -0.549727)
(0.0930816 -0.150907 0.0646957)
(0.543337 1.49857 -0.467773)
(0.11335 -0.188784 0.0977048)
(0.422773 1.3195 -0.381881)
(0.093361 -0.150051 0.0718036)
(0.362656 1.46675 -0.351137)
(0.466285 1.48965 -0.388228)
(0.383344 1.39663 -0.347944)
(0.0831893 -0.175587 0.0722449)
(0.486004 1.76973 -0.489829)
(0.108479 -0.175147 0.0583024)
(0.396377 1.52373 -0.493781)
(0.120501 -0.187905 0.0789272)
(-0.0360354 0.0897768 -0.0733571)
(0.0898739 -0.168911 0.0761667)
(-0.0513582 0.0735971 -0.0686256)
(-0.0356787 0.0829676 -0.0528013)
(-0.0378873 0.0811063 -0.043257)
(-0.0529707 0.0802529 -0.0663458)
(-0.0311111 0.0736435 -0.0226177)
(-0.0848448 0.109769 -0.0990352)
(-0.08273 0.0620976 -0.0883433)
(-0.069055 0.100725 -0.0963757)
(-0.0850956 0.0798651 -0.10137)
(-0.0622895 0.106312 -0.0843118)
(0.095025 -0.129735 0.0555957)
(-0.11308 0.110357 -0.103015)
(0.110167 -0.144721 0.0831392)
(-0.106611 0.0439326 -0.0815886)
(0.0821286 -0.130628 0.0614151)
(-0.0941807 0.0973608 -0.103242)
(-0.111142 0.132675 -0.110378)
(0.120187 -0.127573 0.0673017)
(-0.136569 0.0821946 -0.103795)
(0.0817945 -0.116694 0.0476833)
(-0.0824408 0.112137 -0.0827892)
(-0.126103 0.0798983 -0.0827466)
(-0.082173 0.115424 -0.0731428)
(-0.0948806 0.0982257 -0.0971884)
(0.111405 -0.129203 0.053122)
(-0.137123 0.0756258 -0.0877908)
(0.135131 -0.135062 0.0778984)
(-0.106495 0.111665 -0.0913956)
(0.101739 -0.124507 0.0699574)
(-0.18602 0.107954 -0.107961)
(-0.172729 0.133387 -0.103491)
(-0.207209 0.0545428 -0.0766951)
(-0.189397 0.113048 -0.0941188)
(-0.207682 0.146237 -0.0858897)
(-0.241091 0.0758847 -0.0818709)
(-0.147171 0.132366 -0.0951865)
(-0.143638 0.0610083 -0.0914003)
(-0.150497 0.149799 -0.100333)
(-0.174167 0.0816166 -0.0914255)
(-0.162108 0.129728 -0.0641818)
(-0.163158 0.0590956 -0.0590606)
(0.0816941 -0.146698 0.0684453)
(-0.162898 0.14849 -0.0615366)
(-0.185843 0.0795644 -0.0572499)
(-0.191592 0.0935149 -0.0855802)
(-0.220638 0.091441 -0.0684314)
(-0.182708 0.150275 -0.0869715)
(-0.22794 0.0833887 -0.0860965)
(-0.183133 0.134955 -0.092118)
(-0.306859 0.131981 -0.0603396)
(-0.232918 0.153135 -0.0618998)
(-0.381867 0.187033 -0.0699539)
(-0.302099 0.182789 -0.0441699)
(-0.516039 0.273002 -0.0657541)
(-0.406713 0.181243 -0.0411348)
(-0.148526 0.108903 -0.0906406)
(-0.107593 0.10611 -0.0534177)
(-0.164749 0.114988 -0.0816634)
(-0.149459 0.123739 -0.0450482)
(-0.0863513 0.113124 -0.042813)
(-0.111418 0.126133 -0.0461584)
(-0.255472 0.14637 -0.054554)
(-0.19952 0.137274 -0.061041)
(-0.18604 0.12522 -0.00413399)
(0.122101 -0.168721 0.0591518)
(-0.229513 0.15011 -0.0805705)
(0.127058 -0.169593 0.0546615)
(-0.181671 0.142516 -0.0210216)
(0.106107 -0.158567 0.0703982)
(-0.354537 0.168082 -0.0753455)
(0.126676 -0.146114 0.0605143)
(-0.331006 0.197011 -0.0850784)
(0.14375 -0.151758 0.0606401)
(-0.289993 0.146065 -0.0963438)
(0.11303 -0.134283 0.0711585)
(-0.396675 0.17686 -0.0906248)
(-0.371377 0.272749 -0.149657)
(-0.52246 0.20513 -0.122638)
(-0.412371 0.231469 -0.0841908)
(0.117238 -0.169641 0.0505105)
(-0.363328 0.143127 -0.0937944)
(0.122153 -0.157778 0.0482879)
(-0.465576 0.338459 -0.101604)
(-0.622077 0.299316 -0.124764)
(0.126654 -0.150735 0.0515902)
(-0.488201 0.304231 -0.0840843)
(0.142627 -0.149541 0.0535097)
(-0.876263 0.565069 -0.102404)
(-0.671874 0.389482 -0.0133776)
(-0.688926 0.423023 -0.168053)
(-0.887959 0.600055 -0.135089)
(-0.223041 0.161767 -0.0560402)
(-0.281674 0.0741583 -0.0795855)
(-0.2877 0.128733 -0.0654386)
(-0.153519 0.129559 -0.0161028)
(-0.167915 0.0573771 -0.0300181)
(-0.169898 0.104104 -0.00269632)
(-0.146642 0.14657 -0.00938813)
(-0.180523 0.0878906 -0.0238139)
(-0.150136 0.111619 0.00574065)
(-0.133275 0.143396 -0.00542391)
(-0.177794 0.104506 0.0113046)
(-0.140192 0.118556 0.0261791)
(-0.243446 0.10266 -0.0384595)
(-0.182217 0.149743 -0.0224484)
(-0.211947 0.0854183 -0.0266997)
(-0.177951 0.131955 0.0207968)
(-0.310388 0.146831 -0.0421199)
(-0.268099 0.145276 -0.038008)
(-0.113508 0.132349 0.00487461)
(-0.144023 0.11766 0.022127)
(-0.0940297 0.108327 0.0224321)
(-0.209033 0.139527 -0.000470974)
(-0.135728 0.115897 -0.00275467)
(-0.411319 0.292249 -0.124917)
(-0.544948 0.232696 -0.169195)
(-0.491224 0.238678 -0.190272)
(-0.405831 0.155373 -0.0946326)
(-0.334364 0.213272 -0.0811316)
(-0.390151 0.129776 -0.0907197)
(-0.354521 0.164115 -0.0498503)
(-0.52904 0.209519 -0.122722)
(-0.721761 0.423246 -0.160893)
(-0.902606 0.581378 -0.157541)
(-0.590691 0.36903 -0.16262)
(-0.675371 0.308269 -0.142964)
(-0.559059 0.246536 -0.133366)
(-0.884164 0.51827 -0.124624)
(-0.396763 0.233021 -0.0969649)
(-0.421585 0.128487 -0.0830436)
(-0.310928 0.14581 -0.00762286)
(-0.593764 0.357933 -0.110576)
(-0.699385 0.355062 -0.099992)
(-0.514332 0.248092 -0.0334252)
(-0.466064 0.210961 -0.0831767)
(-0.376574 0.163885 -0.0506595)
(-0.48389 0.224265 -0.0263913)
(-0.262565 0.190555 -0.0451911)
(-0.321012 0.155256 -0.0231306)
(-0.246308 0.152123 0.00129256)
(-0.297105 0.171053 -0.0173849)
(-0.194435 0.14525 -0.00578758)
(-0.257979 0.188794 -0.0171363)
(-0.347908 0.186695 -0.0184309)
(-0.467926 0.241195 -0.00685187)
(-0.375982 0.242904 -0.0215153)
(-0.593242 0.377516 -0.0662244)
(-0.494195 0.286621 0.0154842)
(-0.0800905 0.0447258 0.00318278)
(-0.0778544 0.0408773 -0.000647527)
(-0.0753171 0.0399308 -0.00341779)
(-0.0783574 0.0544413 -0.00107633)
(-0.0799642 0.0415118 0.00275027)
(-0.072202 0.0419525 6.73472e-06)
(-0.0812456 0.049177 0.00615136)
(-0.0677177 0.0326617 0.00807743)
(-0.0689769 0.0385777 0.00156105)
(-0.076652 0.0473146 0.00309872)
(-0.0785862 0.0413433 -0.00461051)
(-0.0712409 0.0390697 -0.00218756)
(-0.075385 0.05127 0.000412279)
(-0.0695699 0.0359168 0.00320733)
(-0.0675211 0.0404639 -4.29055e-05)
(-0.0694335 0.0372853 0.00692852)
(-0.101245 0.0866513 0.0289015)
(0.0890347 -0.201196 0.0697116)
(-0.0887647 0.0497958 0.0284644)
(0.0749223 -0.186652 0.048023)
(-0.0981615 0.0640443 0.0273547)
(-0.172179 0.110432 0.058982)
(-0.128072 0.0952516 0.0391179)
(0.0708814 -0.201718 0.0568999)
(-0.137196 0.0914164 0.0473356)
(-0.171072 0.147171 0.0365419)
(-0.134549 0.114573 0.0384439)
(0.0776687 -0.188471 0.0624648)
(-0.136609 0.126357 0.0467836)
(-0.120773 0.0923678 0.0407611)
(-0.231283 0.197228 0.0709012)
(0.0761342 -0.180863 0.0580229)
(-0.184691 0.142039 0.0479452)
(-0.33123 0.222411 0.099107)
(-0.24101 0.20782 0.0371247)
(-0.248399 0.178225 0.0697078)
(-0.379286 0.234552 0.0826849)
(-0.299786 0.215996 0.0366935)
(-0.300789 0.186651 0.0632144)
(-0.289629 0.186743 0.0732849)
(-0.199449 0.122943 0.0614422)
(-0.16333 0.105448 0.0440596)
(-0.234377 0.116501 0.0487359)
(-0.19153 0.117295 0.0525935)
(-0.193234 0.10122 0.0361607)
(-0.229563 0.16208 0.0759625)
(-0.263241 0.151546 0.073391)
(0.0689083 -0.197192 0.0435821)
(-0.0749651 0.0530573 0.0172788)
(0.0564926 -0.182736 0.0277511)
(-0.0668985 0.0493206 -0.000777644)
(0.0645664 -0.195626 0.0278586)
(-0.0607145 0.0446115 0.00321946)
(-0.0919363 0.0574656 0.0280784)
(-0.0720967 0.046316 0.00977276)
(0.0768837 -0.182206 0.0468859)
(-0.0686278 0.0464731 0.0101954)
(0.0669013 -0.175938 0.0321141)
(-0.0655627 0.0509321 0.00727739)
(0.0721307 -0.179508 0.0323973)
(-0.0951813 0.0744195 0.0134428)
(-0.089618 0.0597025 0.00296391)
(-0.0703781 0.0493339 0.00270998)
(-0.115598 0.0812378 0.0121835)
(-0.101712 0.0687599 0.0102989)
(-0.0946986 0.0657265 0.0131308)
(-0.100036 0.0726155 0.00460869)
(-0.103123 0.0576062 0.0323966)
(-0.0916922 0.0448852 0.0269252)
(-0.0960955 0.0562203 0.0277474)
(-0.0983309 0.0572422 0.0245259)
(-0.095498 0.0530424 0.0343039)
(-0.103615 0.0616729 0.0257103)
(-0.113378 0.0590241 0.0178483)
(-0.0957471 0.0517887 0.0263434)
(-0.0979981 0.0526937 0.0202527)
(-0.106932 0.0671247 0.0285291)
(-0.0937536 0.0605798 0.00967677)
(0.0852883 -0.176321 0.0481661)
(-0.078685 0.048241 0.0149864)
(-0.0662446 0.0475257 -0.00109014)
(-0.0693645 0.0408748 -0.00392559)
(-0.060578 0.0391676 -0.00783582)
(-0.0683382 0.0525813 0.00752258)
(-0.0643399 0.0459054 -0.00898996)
(-0.0572451 0.0429384 -0.00254575)
(-0.0645984 0.045974 -0.0042159)
(-0.0787237 0.0469255 -0.00594647)
(-0.0706245 0.0401679 -0.00100065)
(-0.0806688 0.0422649 -0.0022889)
(-0.069447 0.0451515 -0.00515064)
(-0.0823776 0.044845 -0.00424419)
(-0.0632013 0.0500658 -0.000142476)
(-0.0650046 0.0501741 -0.00316654)
(-0.0621934 0.0523404 0.00102299)
(-0.0653436 0.05523 -0.00162801)
(-0.0721406 0.0517103 -0.0052063)
(-0.0881719 0.0530993 -0.00592928)
(-0.073349 0.0585425 -0.00417907)
(-0.0917356 0.061753 -0.00785098)
(0.07138 -0.165752 0.0451756)
(-0.0787728 0.0637236 -0.00258985)
(0.0756836 -0.167946 0.0366259)
(-0.0753084 0.0472349 -0.00101355)
(0.0768414 -0.165809 0.0325022)
(-0.0631939 0.0453387 -0.00614469)
(-0.0822772 0.0516214 -0.00747257)
(-0.0845612 0.066657 0.00221672)
(0.0840655 -0.15596 0.0412462)
(-0.088848 0.0502112 -0.0015612)
(0.0837761 -0.167871 0.0403558)
(-0.0986428 0.0528863 0.0341374)
(0.0765811 -0.161539 0.0329441)
(-0.0848831 0.0508276 0.0222871)
(-0.0828715 0.0491089 0.0184551)
(-0.104929 0.0596963 0.0359443)
(-0.085847 0.0552035 0.0157836)
(-0.0749104 0.0508166 0.01629)
(-0.0642738 0.0509244 0.00728768)
(-0.074131 0.0520948 0.0165697)
(-0.0616597 0.0517695 0.00986475)
(-0.115045 0.0586659 0.0307537)
(-0.0904362 0.058021 0.0279847)
(-0.0880886 0.0507883 0.0109997)
(-0.0743056 0.0500905 0.0231908)
(-0.0758631 0.0489813 0.0135188)
(-0.0606657 0.0481897 0.00770525)
(-0.127097 0.0856888 0.042651)
(-0.112501 0.0616869 0.0284887)
(-0.127658 0.0720735 0.0464546)
(-0.144317 0.0740807 0.0490561)
(-0.154722 0.0726088 0.0619126)
(-0.113176 0.0639089 0.0377693)
(-0.0824922 0.0530565 0.0268617)
(-0.0606208 0.0536406 0.00288115)
(-0.0620587 0.0555077 0.000251609)
(-0.056717 0.0526819 0.00580145)
(-0.0579373 0.0554743 0.00312078)
(-0.0711686 0.0625605 -0.00257406)
(-0.115446 0.0712821 -0.0110925)
(-0.0922188 0.0691509 -0.000956717)
(-0.0850268 0.061841 -0.00579363)
(-0.0769957 0.0651972 -0.010332)
(-0.0684677 0.059051 0.00618879)
(-0.0613272 0.0555862 0.00156005)
(-0.0557443 0.0479189 0.0122444)
(-0.0542205 0.0488841 0.00385141)
(-0.058685 0.055587 -0.00205295)
(-0.0557258 0.0497392 0.0114903)
(-0.0522433 0.0502703 0.00568621)
(-0.111971 0.0783381 -0.00811537)
(-0.0971223 0.0702433 0.000786694)
(-0.0841853 0.0634017 -0.00324143)
(-0.0567056 0.0482103 0.0134621)
(-0.0619989 0.0578891 0.0058078)
(-0.0674314 0.0454308 0.00983766)