/*--------------------------------*- C++ -*----------------------------------*\
| =========                 |                                                 |
| \\      /  F ield         | OpenFOAM: The Open Source CFD Toolbox           |
|  \\    /   O peration     | Version:  5.0                                   |
|   \\  /    A nd           | Web:      www.OpenFOAM.org                      |
|    \\/     M anipulation  |                                                 |
\*---------------------------------------------------------------------------*/
FoamFile
{
    version     2.0;
    format      ascii;
    class       surfaceScalarField;
    location    "60";
    object      phiHyper;
}
// * * * * * * * * * * * * * * * * * * * * * * * * * * * * * * * * * * * * * //

dimensions      [0 3 -1 0 0 0 0];

internalField   nonuniform List<scalar> 
105569
(
-6.71033e-11
4.32179e-11
-4.16235e-11
-8.79445e-12
-6.16491e-11
3.44936e-11
-3.52662e-11
-4.67572e-12
-5.42393e-11
2.65972e-11
-2.74984e-11
-6.50312e-12
1.78866e-11
-1.95821e-11
-2.94345e-12
4.34055e-11
-3.99302e-12
5.49008e-11
-6.37253e-12
6.28032e-11
-5.51862e-12
-8.57764e-12
-7.54573e-11
-5.13259e-11
-7.85671e-12
-7.26263e-11
-4.57792e-11
-6.01672e-12
-6.60149e-11
-4.0113e-11
-8.11718e-12
-6.33867e-11
-3.29302e-11
-4.95913e-12
-5.82696e-11
-2.59076e-11
-6.70299e-12
-1.91045e-11
-3.23391e-12
-7.10884e-11
-4.82503e-11
-8.00705e-12
-6.85365e-11
-4.27668e-11
-5.5603e-12
-6.4682e-11
-3.61834e-11
-7.78054e-12
-6.18984e-11
-3.03825e-11
-5.32694e-12
-5.78681e-11
-2.27227e-11
-7.21167e-12
-1.63019e-11
-4.43559e-12
9.91405e-10
2.38478e-12
1.5434e-10
5.43874e-11
1.30669e-09
-6.85683e-11
-4.59938e-10
7.21956e-11
1.03053e-09
-1.43627e-10
1.15715e-10
2.40747e-10
6.3333e-11
1.35233e-09
-2.13712e-10
7.84996e-11
3.25685e-10
-5.12249e-10
1.06095e-09
-2.87641e-10
9.38495e-11
6.27414e-11
4.22448e-10
1.38703e-09
-3.53955e-10
-5.54022e-10
7.50083e-11
5.06906e-10
1.08981e-09
-4.22456e-10
7.85454e-11
5.7233e-11
5.83913e-10
1.41592e-09
-4.7602e-10
-5.77845e-10
6.77613e-11
6.60008e-10
1.09435e-09
-5.28054e-10
7.60752e-11
4.71532e-11
1.43343e-09
-5.75239e-10
-5.86661e-10
6.14029e-11
1.11035e-09
-6.09666e-10
6.27834e-11
4.47315e-11
1.42497e-09
-6.35189e-10
-6.03044e-10
6.56867e-11
1.0927e-09
-6.51057e-10
5.82317e-11
4.08584e-11
1.38924e-09
-6.59411e-10
8.72369e-11
-6.1956e-10
1.0582e-09
-6.6555e-10
8.63102e-11
-9.97931e-13
1.33619e-09
-6.68301e-10
1.18193e-10
-6.48401e-10
1.01051e-09
-6.72525e-10
1.21615e-10
-5.54507e-11
-6.67488e-10
1.46843e-10
-6.64298e-10
-6.88541e-11
-4.60006e-11
6.5592e-11
-4.19475e-13
-6.96821e-11
-4.87335e-11
4.25848e-12
-7.2831e-11
-5.14592e-11
-5.17197e-12
-7.25641e-11
-5.4666e-11
-5.64893e-12
-7.30051e-11
-5.40645e-11
-2.27362e-12
-7.22648e-11
-5.15819e-11
-5.05992e-12
-7.10728e-11
-4.95887e-11
-3.77593e-12
-6.76706e-11
-4.44764e-11
-7.17176e-12
-6.54131e-11
-3.98926e-11
-5.12845e-12
-6.11654e-11
-3.27008e-11
-7.726e-12
-5.93084e-11
-2.66316e-11
-5.60449e-12
-5.55668e-11
-1.89325e-11
-7.52822e-12
-5.39955e-11
-1.25501e-11
-5.32033e-12
-5.14765e-11
-6.16711e-12
-6.08029e-12
-9.19312e-13
-3.84166e-12
9.63201e-10
6.84701e-11
7.59287e-11
1.09388e-10
1.27857e-09
-1.5817e-11
9.44235e-11
-4.62535e-10
1.01067e-09
-1.15174e-10
7.94736e-11
1.59988e-10
1.33009e-09
-1.99781e-10
9.22662e-11
-4.25598e-10
1.03906e-09
-2.94994e-10
6.89858e-11
2.29404e-10
1.36449e-09
-3.81875e-10
7.78389e-11
-3.75328e-10
1.05449e-09
-4.6745e-10
5.34888e-11
3.0152e-10
1.37117e-09
-5.40897e-10
6.3153e-11
-3.14944e-10
1.06224e-09
-6.20315e-10
3.57206e-11
3.6549e-10
1.3635e-09
-6.65553e-10
4.65955e-11
-2.57523e-10
1.0417e-09
-7.22413e-10
2.46548e-11
4.09907e-10
1.32997e-09
-7.46693e-10
4.34985e-11
-2.20252e-10
1.00461e-09
-7.74923e-10
2.99568e-11
4.19279e-10
1.28371e-09
-7.88308e-10
5.84398e-11
-2.0863e-10
9.63382e-10
-7.93287e-10
5.97307e-11
3.88346e-10
1.20394e-09
-7.86956e-10
9.44016e-11
-2.16294e-10
8.9679e-10
-7.99644e-10
9.48887e-11
3.3938e-10
-7.88527e-10
1.20317e-10
-2.26498e-10
-1.94308e-11
-2.30199e-11
-8.43751e-12
-1.9626e-11
-2.23313e-11
-8.13734e-12
-2.05946e-11
-2.15181e-11
-6.07041e-12
-2.11306e-11
-2.09651e-11
2.72939e-11
-5.79309e-12
-2.3173e-11
-1.97861e-11
2.73324e-11
-5.50439e-12
-2.95143e-11
-1.57116e-11
2.91556e-11
-7.10241e-12
-3.55263e-11
-1.85615e-11
3.26775e-11
-8.10323e-12
-4.44205e-11
-2.45704e-11
3.90816e-11
-5.61154e-12
-5.21337e-11
-3.30597e-11
4.30996e-11
-2.32276e-12
-5.68358e-11
-3.84129e-11
4.68843e-11
-3.76413e-12
-6.20451e-11
-4.09236e-11
4.84656e-11
-2.33156e-12
-6.21335e-11
-4.16491e-11
4.78209e-11
-6.0796e-12
-6.31603e-11
-4.08984e-11
4.58047e-11
-3.87597e-12
-6.10492e-11
-3.71325e-11
4.12181e-11
-6.19269e-12
-6.00396e-11
-1.90553e-11
3.45867e-11
-1.65371e-11
-5.6567e-11
-2.11848e-11
2.8773e-11
-1.10568e-11
-5.74796e-11
-1.24022e-11
2.25242e-11
-9.20625e-12
-5.21935e-11
-5.92218e-12
1.35501e-11
-1.29101e-11
-5.07305e-11
2.54289e-12
7.06883e-12
-1.10721e-11
-4.5073e-11
1.91661e-12
-3.42658e-12
-4.1451e-12
-4.28448e-11
-3.38493e-12
-8.29808e-12
9.45673e-12
-3.86862e-11
-8.96991e-12
1.33702e-11
-5.25189e-12
1.41991e-11
5.39882e-09
2.29979e-09
-1.52178e-09
1.31656e-10
5.97645e-10
3.52182e-10
-1.23824e-10
5.8445e-09
2.046e-09
-1.86926e-09
6.50518e-10
1.43177e-10
-6.92185e-11
4.49841e-10
-1.7967e-09
6.31168e-09
1.60128e-09
-2.06044e-09
1.26414e-10
6.41545e-10
-3.81382e-11
5.08928e-10
-1.24671e-09
6.74294e-09
1.06875e-09
-2.09322e-09
5.71571e-10
5.35209e-10
1.25881e-10
-2.84179e-11
-6.10975e-10
6.68097e-09
7.85465e-10
-1.90816e-09
5.15039e-10
5.32478e-10
6.35111e-11
-4.05084e-11
1.14221e-10
6.49164e-09
1.89408e-10
-1.58657e-09
4.21954e-10
5.01238e-10
-7.18544e-11
-5.3531e-11
7.88741e-10
6.39096e-09
-6.18798e-10
-1.14895e-09
2.72945e-10
4.41602e-10
-1.19176e-10
-2.53166e-10
1.5263e-09
6.20055e-09
-1.29946e-09
-6.83906e-10
1.47894e-10
3.89789e-10
-1.58448e-10
-3.70537e-10
2.16514e-09
5.90406e-09
-1.87533e-09
-3.56126e-10
-4.28997e-10
7.59553e-11
3.62882e-10
-1.67859e-10
2.68605e-09
1.52926e-09
-2.41018e-09
-1.95016e-10
9.75951e-10
1.29684e-09
1.90533e-09
-4.08783e-10
1.32617e-11
2.94467e-10
-1.29058e-10
3.03206e-09
1.32763e-09
5.14615e-10
-9.77441e-10
-9.26976e-11
7.57162e-10
1.62915e-09
-1.31469e-10
-1.04456e-09
8.95949e-10
-2.14287e-11
1.18394e-09
5.90304e-10
-1.08583e-09
7.68652e-12
9.33064e-10
1.41851e-09
-1.34893e-10
-1.09838e-09
9.35268e-10
6.34321e-11
1.02316e-09
4.69369e-10
-1.09764e-09
9.1639e-11
9.31989e-10
1.23682e-09
-1.83412e-10
8.93905e-10
-1.05777e-09
1.33603e-10
8.77665e-10
3.31567e-10
8.92805e-10
-1.02062e-09
1.55397e-10
9.45072e-10
-2.23141e-10
8.67922e-10
-9.03022e-10
1.90824e-10
7.55192e-10
1.21227e-10
-9.64798e-10
8.29055e-10
2.04398e-10
8.10947e-10
-2.86208e-10
-7.94251e-10
8.08441e-10
2.16264e-10
-1.94895e-11
-8.36105e-10
7.81155e-10
2.20745e-10
-2.28205e-11
-6.10198e-12
-2.14419e-11
-2.7556e-11
3.86704e-11
-2.37865e-11
-1.01486e-11
-3.39629e-11
4.45856e-11
-2.75428e-11
-1.06346e-11
-4.00351e-11
4.79916e-11
-3.16735e-11
-1.02434e-11
-4.73558e-11
5.17956e-11
-3.54554e-11
-9.01777e-12
-5.31962e-11
5.48967e-11
-4.37318e-11
-5.32341e-12
-2.64063e-11
5.27077e-11
-6.04539e-11
-1.90427e-11
-5.40263e-12
3.95137e-11
-2.92485e-11
-3.12678e-11
-1.42188e-11
2.12846e-11
-2.96349e-12
-9.5045e-12
-2.40938e-11
2.48387e-11
-1.33409e-11
-1.62135e-12
-3.48364e-11
3.3025e-11
-2.27584e-11
4.76253e-13
-4.65673e-11
4.08359e-11
-3.16494e-11
2.54495e-12
-6.00606e-11
4.85175e-11
-4.02868e-11
5.26289e-12
-5.59621e-11
4.97816e-11
-4.42106e-11
-9.66983e-12
-1.10138e-11
2.87389e-12
-1.49127e-11
-3.29091e-11
-1.85423e-11
1.74777e-11
-9.37931e-12
-5.69683e-13
-2.93676e-11
1.61298e-11
-1.5597e-11
1.02928e-11
-3.88229e-11
2.05092e-11
-1.50584e-11
4.00501e-12
-3.57621e-11
1.9202e-11
-1.31919e-12
-2.09407e-11
-1.04637e-11
-5.81009e-12
-2.71586e-11
7.67345e-12
-1.38563e-11
8.20357e-12
-1.18388e-12
-3.62311e-12
-1.83888e-11
4.43423e-12
3.88803e-12
-3.78397e-12
-2.36333e-11
4.51373e-12
3.34594e-12
-2.61151e-12
-2.57151e-11
2.28161e-12
-9.34924e-13
7.39212e-13
-1.86701e-11
-4.83921e-12
3.42274e-12
-5.62347e-12
-4.33751e-12
-8.59625e-12
1.21653e-11
-1.78998e-11
-5.7712e-12
-1.43524e-12
5.63482e-12
-2.7646e-12
-6.18014e-12
-3.47105e-12
7.30623e-12
-3.42542e-12
-5.60311e-12
-4.9604e-12
9.50582e-12
-5.12183e-12
-4.96313e-12
-5.55379e-12
1.02427e-11
-5.32821e-12
-6.4194e-12
-3.83046e-12
8.94433e-12
-3.65709e-12
8.41975e-13
2.75305e-13
-2.00029e-11
1.24669e-11
7.53491e-12
-1.59724e-11
5.44975e-12
9.77077e-12
-1.30328e-11
5.24419e-12
1.09757e-11
-1.03382e-11
4.17373e-12
1.0443e-11
-6.53555e-12
3.59835e-12
-6.74038e-13
1.08733e-12
-2.248e-11
8.24189e-13
2.22673e-11
-1.28106e-12
-2.40549e-11
-2.27081e-12
-2.68766e-12
-2.24883e-11
-4.94714e-12
-6.95501e-12
-1.9463e-11
-7.7632e-12
-8.29221e-12
-1.6183e-11
-9.84443e-12
-9.40609e-12
-1.47658e-11
-9.67933e-12
1.60976e-11
-7.83369e-12
-1.26111e-11
-7.58009e-12
1.79515e-11
-1.25245e-11
-7.56869e-12
-1.35357e-11
1.5173e-11
-6.67858e-12
-8.13399e-12
-5.32829e-12
9.2758e-12
-3.38145e-12
1.76748e-12
-8.64184e-13
-2.46925e-11
1.5656e-11
1.11002e-11
-2.20842e-11
7.42389e-12
6.20071e-12
-2.46891e-11
1.60539e-11
6.07345e-12
9.75533e-12
-3.24615e-11
2.28345e-11
3.83605e-12
-1.86139e-11
1.58466e-11
5.00572e-12
9.02558e-12
-3.01346e-12
1.05787e-11
-4.97878e-12
-6.25177e-12
1.55015e-11
-5.4932e-12
-9.27268e-12
1.59334e-11
-7.12373e-13
-7.4815e-12
1.70276e-11
-7.43347e-13
-5.29691e-12
1.63578e-11
1.04961e-12
-2.64888e-12
1.58157e-11
1.32297e-12
4.65699e-14
-3.34953e-12
1.14897e-11
-2.53158e-12
1.02104e-11
1.88186e-11
-4.73709e-12
1.68656e-11
4.83355e-12
-5.96419e-13
1.29626e-11
4.42733e-12
3.99018e-12
1.09822e-11
-1.85794e-12
8.2744e-12
7.32094e-12
3.91768e-11
-2.95509e-11
-5.96373e-12
2.50448e-11
-1.53268e-11
4.26891e-11
2.37846e-11
-2.24795e-12
3.64066e-11
2.67469e-11
-1.2605e-12
2.58856e-11
2.12817e-11
9.75025e-12
2.7991e-11
1.19757e-11
2.04954e-12
-3.52202e-12
6.42659e-11
2.80994e-11
-6.08516e-11
5.80617e-11
-4.1232e-11
6.2332e-11
6.6277e-11
-6.27888e-12
6.49061e-11
5.89724e-11
-1.17626e-11
5.49438e-11
5.68285e-11
1.65075e-12
4.6249e-11
5.08533e-11
-1.32194e-12
3.74994e-11
4.54454e-11
-3.66971e-12
2.97506e-11
4.05904e-11
-8.00063e-12
2.37151e-11
3.5836e-11
-8.5146e-12
-1.95738e-11
1.88312e-11
3.04185e-11
-5.95879e-12
3.24227e-11
4.02259e-11
2.72991e-11
2.09331e-11
3.90886e-11
2.42181e-11
2.02368e-11
3.46403e-11
2.09631e-11
1.90327e-11
3.2214e-11
1.91726e-11
1.76733e-11
2.87035e-11
1.58896e-11
2.51231e-11
-1.2592e-11
2.52856e-11
-8.03547e-12
-1.37233e-11
2.74301e-11
-8.62502e-12
-1.53591e-11
2.93028e-11
-8.63426e-12
-1.65967e-11
3.01804e-11
-8.70544e-12
2.99377e-11
-6.7696e-12
-3.62386e-11
3.20576e-11
-7.11098e-12
-4.12037e-11
4.31588e-11
-7.77425e-12
-4.66973e-11
5.30377e-11
-1.17071e-11
-5.16848e-11
5.78197e-11
-1.22381e-11
-5.79859e-11
5.84722e-11
-6.72407e-12
-6.39041e-11
6.18999e-11
-5.12848e-12
-6.9867e-11
6.37432e-11
-9.52069e-13
-8.78661e-11
7.99155e-11
-2.94384e-12
-6.07036e-11
3.23256e-11
6.79449e-12
-1.79186e-11
3.99119e-11
-5.45955e-11
-2.37081e-11
1.61957e-11
1.57332e-12
-3.59797e-11
2.41204e-11
9.437e-12
-4.4361e-11
3.13791e-11
3.75221e-12
-4.9658e-11
3.43479e-11
-5.26398e-12
-4.1809e-11
-2.73908e-11
2.77805e-11
-8.23631e-12
-1.09066e-11
-7.29347e-12
-3.13801e-11
7.7726e-12
-1.00436e-11
4.7044e-12
-1.13897e-12
6.79505e-12
-5.13029e-13
2.0577e-11
2.45025e-11
-2.28596e-11
-1.54222e-11
3.15734e-11
-1.35847e-11
-5.82397e-11
5.54113e-11
-6.49138e-12
-6.07004e-11
-1.01642e-11
-4.55206e-11
-1.93633e-11
-1.48663e-11
-1.12145e-11
-1.20965e-11
-3.6722e-11
1.45144e-11
-9.99566e-12
2.59531e-12
-2.48922e-12
-1.03952e-11
2.7845e-12
-1.33388e-12
-9.2834e-12
1.15053e-12
-3.00477e-12
-8.96863e-12
8.88069e-14
-1.11539e-12
1.39327e-11
-1.44413e-11
-3.63629e-11
2.79036e-11
1.96138e-11
-3.04852e-12
2.2018e-11
-7.17511e-12
2.07909e-11
-8.38874e-12
-9.89293e-12
-7.20596e-12
2.14791e-11
-6.33739e-11
8.19233e-11
9.49132e-12
-7.12876e-12
-9.14365e-11
1.7495e-11
6.92663e-11
1.0068e-11
-1.74306e-11
6.23477e-11
1.64845e-11
-2.54963e-11
-1.97609e-11
3.60084e-11
6.56663e-11
-2.30509e-11
2.98316e-11
-8.82077e-11
1.73054e-11
-1.85284e-11
3.54871e-11
6.64061e-11
-1.88213e-11
-9.28348e-11
3.06181e-11
-1.41492e-11
3.68941e-11
-2.42814e-12
3.43584e-11
-5.55924e-12
-1.0254e-10
6.20332e-11
-2.01279e-11
1.30972e-11
9.87573e-13
-2.43591e-11
-2.01581e-12
2.47184e-12
-2.00389e-11
1.84238e-12
-2.8094e-12
-4.91679e-12
1.21251e-11
-8.83185e-12
-1.84128e-11
-6.829e-12
5.16028e-12
-1.09249e-12
-2.15371e-12
-9.66486e-12
7.30553e-12
-3.10597e-12
-1.36165e-12
-9.52892e-12
1.10841e-11
-5.58267e-12
-9.37961e-12
1.42201e-11
-7.06163e-12
-7.72759e-12
1.69844e-11
-9.12933e-12
-7.23426e-12
1.86919e-11
-8.94153e-12
-6.48265e-12
1.89414e-11
-1.07477e-11
-3.69596e-12
-1.37136e-11
1.76058e-11
-6.67807e-12
-3.19631e-12
-9.50121e-12
1.42867e-11
-5.28427e-12
-5.06813e-12
-4.83701e-12
9.61986e-12
-2.91055e-12
-2.00645e-12
3.29276e-12
-1.50623e-11
8.70885e-12
4.10467e-12
-2.00129e-11
9.06552e-12
5.73633e-12
-2.33431e-11
1.22112e-11
-2.49634e-11
1.72623e-11
-1.92398e-11
-9.62657e-12
-1.41894e-11
-1.0439e-11
-1.16416e-11
-7.38515e-12
-9.45652e-12
1.68755e-11
-9.78303e-12
-8.27119e-12
-8.85984e-12
1.11835e-11
-3.50747e-12
-7.59354e-13
1.65107e-12
-2.32569e-11
1.40951e-11
-2.44345e-11
1.39521e-11
-1.62249e-11
-1.21302e-11
5.02328e-09
2.24827e-09
-1.32904e-09
1.52009e-10
5.64371e-10
3.13396e-10
-1.00843e-10
5.52715e-09
2.30353e-09
2.0282e-10
6.58682e-10
4.20477e-10
-5.1198e-11
-1.73835e-09
6.11379e-09
2.10539e-09
6.73002e-10
5.01752e-10
-1.76855e-12
2.68631e-10
-2.08761e-09
6.27251e-09
2.22359e-09
6.5014e-10
5.44549e-10
1.86732e-11
3.13773e-10
-2.30811e-09
6.28519e-09
1.86081e-09
1.58094e-09
-2.38563e-09
6.50757e-09
1.31274e-09
-2.21431e-09
1.4647e-09
6.39398e-09
1.0038e-09
-1.90994e-09
5.07421e-10
5.163e-10
1.75613e-10
9.85436e-12
6.07309e-09
4.86341e-10
-1.41205e-09
-6.33709e-11
3.71089e-10
4.22417e-10
-1.02278e-10
5.79306e-09
-2.70301e-10
-8.3309e-10
2.01387e-10
3.3237e-10
-1.74843e-10
-2.74876e-10
5.42026e-09
-9.06852e-10
-3.73213e-10
8.25461e-11
2.73125e-10
-2.08084e-10
-3.69983e-10
1.4228e-09
-1.53066e-09
-1.50512e-10
8.77014e-10
1.11629e-09
1.72576e-09
-1.54095e-11
1.47188e-10
-1.87161e-10
-3.95137e-10
1.16899e-09
5.05253e-10
-7.20776e-10
-1.50174e-10
6.19523e-10
1.40835e-09
-7.59719e-11
-9.01884e-11
-8.17198e-10
7.44013e-10
9.81994e-10
5.71535e-10
-8.6427e-10
7.85007e-10
-6.59013e-11
1.04503e-09
-5.35146e-11
-7.77009e-10
-5.65708e-12
7.73149e-10
7.63832e-10
3.68009e-10
-8.8046e-10
7.71088e-10
2.25444e-11
7.79602e-10
-9.55154e-11
-7.16718e-10
6.46832e-11
7.31772e-10
5.95334e-10
1.64181e-10
-7.68474e-10
7.00909e-10
8.76424e-11
5.73735e-10
-1.45081e-10
-5.78844e-10
1.09843e-10
6.35677e-10
5.10702e-10
-1.46736e-10
6.65614e-10
-5.79e-10
1.23152e-10
4.48536e-10
-4.42852e-10
-2.13938e-10
5.95279e-10
1.23674e-10
3.92842e-10
-2.24228e-10
-3.82556e-10
5.40877e-10
1.21596e-10
-2.17302e-10
-3.19895e-10
4.7806e-10
1.1172e-10
-1.22306e-11
-3.88036e-11
-2.8015e-11
4.9563e-11
-2.02055e-12
3.29024e-11
-2.05299e-11
-2.25829e-11
-1.05191e-11
-9.18199e-12
-6.10642e-12
-1.39775e-11
-7.93167e-12
-1.6152e-11
-1.72237e-11
-1.98681e-11
-8.55859e-12
-2.3001e-11
-2.11177e-11
-8.55918e-12
-2.92477e-11
-2.41611e-11
-1.33233e-11
-4.54816e-11
-3.13934e-11
-1.28258e-11
-5.50197e-11
-3.82541e-11
1.0485e-11
3.73058e-11
-4.01413e-11
-5.38003e-11
-1.77155e-12
4.06927e-11
-1.31128e-11
-2.85258e-11
-3.90472e-11
4.0545e-11
-2.49357e-11
-1.17585e-11
8.24879e-13
-3.98301e-11
-2.22347e-11
5.48046e-12
-5.09033e-11
-2.89786e-11
-2.32165e-13
-5.15507e-11
-2.67461e-12
-4.08882e-11
-2.28852e-11
6.96257e-13
-4.42741e-11
-2.42755e-11
-1.1544e-11
3.55569e-12
-3.19237e-11
-1.07118e-11
2.76547e-12
-3.21544e-11
-1.68877e-11
2.06012e-12
-9.49797e-12
7.96785e-12
-2.44914e-11
-6.1297e-12
-2.01059e-12
-1.17127e-12
6.78471e-12
-1.86617e-11
1.19835e-11
2.74907e-12
1.92622e-12
-1.66614e-11
3.64626e-14
-1.04291e-12
-4.19416e-12
8.74593e-12
-7.10979e-12
-1.41001e-11
-6.23294e-12
3.60626e-12
-6.35689e-13
-9.29867e-13
-1.03406e-11
6.09187e-12
-1.33997e-12
-6.41218e-13
-1.17316e-11
9.85884e-12
-3.30399e-12
-1.30865e-11
1.41012e-11
-5.43817e-12
-1.16232e-11
1.81586e-11
-8.53537e-12
-1.07186e-11
2.16585e-11
-8.3411e-12
-8.36022e-12
2.42623e-11
-9.63488e-12
-6.93647e-12
2.6244e-11
-8.97432e-12
-5.04264e-12
2.64962e-11
-9.44673e-12
-4.55157e-12
2.55331e-11
-8.41704e-12
-4.83977e-12
2.27435e-11
-8.1674e-12
-3.85084e-12
1.67675e-11
-8.13528e-12
-2.41376e-12
-6.85622e-12
8.34638e-12
-2.9267e-12
-4.50367e-12
1.13442e-11
-1.32015e-11
3.94813e-12
-2.08162e-11
1.27503e-11
-1.10156e-11
-7.98474e-12
-8.13768e-12
1.72175e-11
-8.90963e-12
-4.75429e-12
-8.7356e-12
8.21183e-12
-2.85831e-12
-2.81894e-12
1.14179e-11
7.96562e-12
-2.13178e-11
-2.54889e-11
1.55865e-11
-1.71982e-11
-1.30647e-11
-1.08309e-11
1.83246e-11
-1.18533e-11
-6.74139e-12
-1.27972e-11
9.44012e-12
-7.32246e-13
-5.91175e-12
1.53194e-11
1.74813e-11
3.01529e-11
9.59542e-09
9.19383e-10
-2.12211e-09
-1.04106e-09
1.01706e-08
7.57839e-10
-7.3019e-10
-2.472e-09
1.05526e-08
-2.64719e-09
4.97078e-10
-2.92323e-10
1.08225e-08
-2.75595e-09
2.10712e-10
1.82255e-10
1.09165e-08
-1.65886e-10
-2.59182e-09
7.55595e-10
1.08423e-08
-2.263e-09
-5.6813e-10
1.31886e-09
1.06271e-08
-1.06475e-09
-1.81891e-09
1.94999e-09
1.03287e-08
-1.33885e-09
-1.63779e-09
2.59123e-09
9.91841e-09
-2.23556e-09
-8.90959e-10
3.18072e-09
9.25752e-09
-4.03222e-10
-2.74656e-09
3.61578e-09
8.6259e-09
-3.71586e-09
-8.05612e-11
4.43056e-09
4.9626e-10
-1.1563e-10
7.856e-09
-7.91191e-11
-4.20222e-09
4.98857e-09
5.48059e-10
-2.98788e-11
7.01326e-09
-2.61801e-10
-4.65138e-09
5.33508e-09
6.10602e-10
9.60836e-11
6.15267e-09
-4.81921e-09
-7.31651e-10
5.5843e-09
2.31974e-10
7.03605e-10
-1.2727e-09
5.50897e-09
-8.02997e-10
-1.20416e-09
-1.70441e-09
-1.36703e-09
3.70568e-10
8.0107e-10
1.47417e-09
-1.10709e-09
-8.71175e-10
3.26044e-10
-1.09466e-09
9.90119e-10
-5.19639e-10
-1.0825e-09
3.79642e-10
1.70653e-09
-9.80725e-10
-1.01396e-09
3.91366e-10
1.26208e-09
-9.92067e-12
-3.59549e-11
-2.83054e-11
-1.03602e-12
-2.19438e-11
-2.01948e-11
-1.03288e-11
-8.10568e-12
-1.00512e-11
-1.77265e-11
-1.91862e-11
-1.2221e-11
-2.17823e-11
-2.17565e-11
-3.18763e-12
2.89992e-11
-2.94338e-11
-2.3348e-11
-9.03516e-12
4.00351e-11
-3.76816e-11
-3.07725e-11
-8.5705e-12
4.75915e-11
-1.94544e-11
-4.83608e-11
-2.21914e-11
5.23249e-11
-4.21486e-12
3.7379e-11
-2.56767e-11
-2.69406e-11
-1.53299e-11
-4.50866e-12
-8.53699e-12
-2.45877e-11
-1.66349e-11
-5.50036e-12
-3.56112e-11
-2.67932e-11
-4.38133e-13
-3.38172e-11
-4.38872e-11
-1.17096e-11
-8.79635e-12
-2.62379e-11
-2.73077e-11
-1.90641e-11
2.18523e-12
-3.67517e-12
-3.46017e-11
-1.60748e-11
9.38121e-12
-4.10506e-11
-2.32001e-11
6.73586e-13
-8.63227e-12
-8.70413e-12
-2.3684e-11
-2.77018e-14
-1.5743e-11
-5.83497e-12
-1.63231e-13
1.31106e-11
-2.68376e-11
-6.87914e-12
6.43351e-12
-2.60416e-11
-1.21522e-11
6.45868e-13
-7.80416e-12
6.51984e-12
-1.9243e-11
-5.51203e-12
-8.5032e-13
-5.06382e-13
5.53865e-12
-1.71499e-11
9.50118e-12
4.4597e-12
2.34463e-12
-1.4415e-11
7.5598e-13
-7.3531e-13
-3.74572e-12
8.32284e-12
-1.21289e-11
-6.85963e-12
-7.52485e-12
4.09042e-12
-5.78825e-13
2.7068e-13
-1.11066e-11
7.71206e-12
-5.18356e-13
-1.40672e-11
1.27834e-11
-3.72784e-12
-1.47581e-11
1.72584e-11
-6.70539e-12
-1.50122e-11
2.09127e-11
-6.55496e-12
-1.32651e-11
2.58839e-11
-9.47004e-12
-1.15705e-11
2.91918e-11
-9.22581e-12
-8.5035e-12
3.17686e-11
-1.05712e-11
-6.45692e-12
3.37635e-11
-9.56395e-12
-4.66134e-12
3.40519e-11
-9.34913e-12
-4.65669e-12
3.35226e-11
-7.99218e-12
-4.24159e-12
3.02555e-11
-7.92515e-12
-4.60687e-12
2.33319e-11
-6.1982e-12
-6.0417e-12
1.51006e-11
-5.31811e-12
-1.28261e-11
1.03762e-11
7.75338e-12
-7.94789e-12
2.62971e-11
-6.85986e-12
-2.43115e-11
-6.23004e-12
2.18561e-11
-1.54172e-11
-8.15423e-12
-4.04263e-12
-1.02715e-11
1.00624e-11
-1.97701e-12
-6.07998e-12
1.39856e-11
-2.0104e-11
8.15714e-12
-7.11712e-12
-3.03702e-11
2.11365e-11
-2.30917e-11
1.19126e-11
1.54821e-11
-1.79808e-11
-2.59486e-11
-9.53047e-12
-1.11811e-11
2.09947e-11
-1.63044e-11
-1.14888e-11
-6.68818e-12
-1.27455e-11
9.90607e-12
-1.65272e-12
-4.83272e-12
1.49474e-11
1.57489e-11
-5.79029e-12
2.77418e-11
1.67958e-11
2.83797e-11
-3.41398e-11
-6.07683e-11
4.14258e-11
-3.54313e-11
-6.19889e-11
4.09517e-11
-3.79291e-11
-6.11162e-11
4.20981e-11
-3.93273e-11
-6.1849e-11
4.2282e-11
-4.39137e-11
-5.8273e-11
4.30727e-11
-4.64169e-11
-5.39711e-11
4.07627e-11
-9.28177e-12
-4.19473e-11
-3.9675e-11
4.44888e-11
-2.07087e-11
-1.94011e-12
-5.19218e-12
-3.01367e-11
1.05713e-12
-4.15223e-11
2.45012e-12
-4.86165e-11
6.37524e-14
-5.49339e-11
-2.55462e-13
-1.33876e-11
2.43657e-10
-1.34302e-10
-4.49605e-12
1.56467e-10
-2.74704e-10
2.1848e-10
-1.37042e-10
3.29642e-12
1.58674e-10
1.97253e-10
-1.35089e-10
3.47938e-12
1.52911e-10
1.62695e-10
1.53099e-11
-1.22066e-10
1.43775e-10
1.27166e-10
1.20799e-11
-9.85174e-11
1.23035e-10
-2.73702e-11
5.78758e-12
1.04862e-10
4.13603e-10
-2.93898e-10
4.41481e-12
3.76942e-10
-4.95264e-10
1.27884e-11
-3.12748e-10
-2.79832e-11
4.07674e-10
3.33874e-10
8.3221e-11
7.95659e-11
9.1228e-12
7.56579e-11
3.95818e-12
6.98367e-11
3.17887e-12
6.79094e-11
-2.23868e-12
6.30355e-11
-2.85417e-12
-6.29131e-12
-8.876e-11
-2.02986e-10
-2.85536e-10
-3.02231e-11
-1.00792e-11
-3.18401e-11
-1.04547e-11
-3.36989e-11
-9.34856e-12
-1.08047e-11
-1.07196e-11
-3.72523e-11
-2.74352e-11
-8.26575e-13
-2.27505e-11
-2.32684e-11
-1.51781e-11
-1.16911e-11
-9.91287e-12
-2.15522e-11
-3.81659e-12
-1.99647e-11
3.01535e-11
-2.76012e-11
-2.58022e-11
-1.09674e-11
4.28167e-11
-1.39329e-11
-4.09902e-11
-2.36758e-11
5.09966e-11
-2.40977e-12
3.36407e-11
-2.15477e-11
-2.36164e-11
-1.10219e-11
-4.57779e-12
-1.01583e-11
-1.72385e-11
-1.71537e-11
-7.40239e-12
-2.99084e-11
-2.13252e-11
-1.43649e-11
-2.02558e-11
-3.6021e-11
-5.98139e-12
3.23511e-11
-4.72744e-12
-2.07128e-11
-2.33835e-11
2.85698e-11
-1.43863e-11
-8.42961e-13
-6.13207e-12
-2.67314e-11
-1.66147e-11
2.16547e-12
-5.04397e-11
-2.63329e-11
6.15274e-12
-4.70366e-11
-3.86912e-11
1.37613e-11
2.15278e-11
-1.90845e-11
-1.95171e-11
-4.14024e-11
3.29706e-11
-3.0487e-11
-1.05225e-11
5.85304e-12
-3.89094e-11
-1.82645e-11
3.49135e-12
-1.31318e-11
-5.42043e-12
-2.90584e-11
-1.85646e-11
-3.15194e-12
2.75173e-12
-2.23037e-11
-3.09989e-12
-3.70435e-14
-5.05795e-12
1.82093e-12
-1.4401e-11
-4.66373e-12
5.91656e-13
-9.67012e-14
3.95007e-12
-1.19434e-11
8.83327e-12
3.87228e-12
-1.66861e-13
-1.37224e-11
9.39992e-12
-3.15792e-12
-3.19495e-12
-1.06119e-11
-6.85058e-12
6.93903e-12
-6.76108e-12
-1.33479e-13
-6.45302e-14
3.76645e-12
-1.10682e-11
4.09922e-14
8.3617e-12
-1.35389e-11
-3.70767e-12
1.3894e-11
-1.50954e-11
-3.81564e-12
1.81584e-11
-1.75901e-11
-7.49214e-12
2.72476e-11
-1.68479e-11
9.83076e-14
2.00749e-11
-1.51701e-11
-2.44059e-12
2.66491e-11
-1.29045e-11
-2.1923e-12
2.91207e-11
-8.93905e-12
-2.69729e-12
3.05022e-11
-4.66486e-12
-1.05671e-12
3.05479e-11
-1.40131e-12
3.43784e-14
3.07556e-11
-5.66965e-12
-2.01724e-12
3.98108e-11
-4.55481e-12
-6.03536e-12
3.51783e-11
-4.07519e-12
-4.65189e-12
2.75056e-11
-1.70205e-12
-6.41587e-12
1.91448e-11
-1.17505e-12
-8.47375e-12
-1.16085e-12
9.10822e-12
-8.61869e-12
3.51344e-12
1.44459e-11
-1.05145e-11
1.95821e-11
1.0792e-11
-2.94024e-11
4.05486e-11
2.81547e-11
-4.15797e-11
-4.8028e-11
6.58323e-11
3.73857e-11
-2.96378e-11
-7.14418e-11
8.72004e-11
4.49177e-11
-3.34083e-11
-8.68318e-11
1.06676e-10
4.96288e-11
-3.67697e-11
-9.75911e-11
1.27637e-10
6.21379e-11
-4.12142e-11
-9.99993e-11
1.28743e-10
7.70443e-11
-4.20678e-11
-9.84551e-11
1.24563e-10
8.833e-11
-9.05016e-11
-4.42601e-11
1.20782e-10
9.54781e-11
-3.94112e-11
-8.29975e-11
1.13071e-10
9.84722e-11
-3.76174e-11
-7.14764e-11
1.03663e-10
9.63312e-11
-2.95809e-11
-5.95078e-11
9.13332e-11
7.93527e-11
-2.71881e-11
-4.63725e-11
8.30544e-11
6.90164e-11
-1.44691e-11
-3.41478e-11
5.51458e-11
5.36286e-11
-7.49522e-12
-2.12504e-11
4.04364e-11
3.47455e-11
7.51002e-12
-1.46724e-11
2.6094e-11
-2.16684e-12
1.55605e-11
1.06152e-11
1.47598e-11
1.48447e-12
1.53293e-11
2.9855e-11
-4.58617e-11
-4.93988e-12
1.4678e-11
1.19649e-11
-8.59063e-12
8.90616e-12
-1.28254e-11
1.46553e-11
-2.05547e-12
-1.65097e-11
2.32058e-11
-5.62417e-12
-1.7036e-11
1.79707e-11
7.15897e-13
-4.66262e-12
2.34743e-11
-8.59712e-12
4.95038e-13
-1.02658e-11
-7.00275e-12
1.21118e-11
-2.83109e-12
-5.05645e-12
-2.05292e-12
1.04361e-11
-3.3146e-12
-8.61118e-12
1.20575e-11
-2.9624e-12
-3.28322e-12
-9.71199e-12
1.2758e-11
-3.0771e-12
-2.6935e-12
-9.86886e-12
1.22579e-11
-2.97826e-12
-2.0544e-12
-8.89535e-12
1.06017e-11
-2.34519e-12
-1.85464e-12
-5.48695e-12
6.34465e-12
-1.05717e-12
-8.76813e-12
1.47944e-11
-1.23589e-11
4.47866e-12
6.71498e-13
1.58298e-11
3.80242e-12
1.85223e-11
5.59661e-12
1.88398e-11
6.43188e-12
1.85739e-11
7.67124e-12
1.67994e-11
1.24247e-11
3.99538e-11
-1.39294e-11
-2.26532e-11
5.79351e-12
5.99214e-11
2.64116e-11
-2.39256e-11
-2.82446e-11
-4.22738e-12
3.41942e-12
1.70387e-11
-4.9712e-12
1.85679e-11
-5.76578e-12
-5.03185e-12
1.83527e-11
-5.53348e-12
-4.23849e-12
1.6602e-11
-5.13695e-12
-3.80647e-12
1.43269e-11
-4.15668e-12
-5.43402e-12
1.0932e-11
-2.95922e-12
-1.00878e-11
1.12605e-11
8.18828e-12
-1.04554e-12
3.17793e-11
2.05982e-13
-4.10241e-11
-4.0659e-12
4.19431e-11
-3.90538e-11
1.33557e-13
-3.37101e-12
3.35306e-11
-3.17386e-11
-2.48498e-12
-2.12069e-12
2.30658e-11
-2.21322e-11
-2.18235e-12
-1.70148e-12
1.14469e-11
-1.10124e-11
-8.52556e-13
-1.75681e-11
1.91659e-11
-8.66335e-12
5.36544e-12
-8.79839e-12
3.79384e-12
1.88487e-12
-8.1468e-12
3.20998e-11
-6.18539e-12
-2.6564e-11
-6.47872e-12
1.39392e-11
-3.45535e-12
-1.21503e-11
-1.80631e-11
2.03507e-11
1.18241e-11
-2.05886e-11
-2.10381e-11
6.46771e-12
1.04945e-11
-1.70771e-11
-8.51075e-12
3.01473e-11
-2.55959e-11
-1.33228e-11
1.32197e-11
-5.31847e-12
-1.16541e-11
-1.87599e-11
2.05299e-11
-3.85103e-11
2.34191e-11
-3.54097e-11
1.99151e-11
1.16836e-11
-3.01403e-11
3.41639e-11
-9.45935e-12
-1.61749e-11
2.00771e-11
-1.5118e-11
-8.45325e-12
-1.49653e-11
9.37694e-12
-2.1328e-12
-3.58678e-12
1.39836e-11
2.23703e-11
3.04952e-11
-1.51711e-12
-2.24254e-11
-2.17187e-11
-1.6843e-11
-1.00411e-11
-1.18856e-11
-2.24344e-11
3.26705e-11
-2.11882e-11
-5.89255e-12
-9.44166e-12
4.39122e-11
-3.39938e-11
-2.2912e-11
-1.22163e-12
3.14568e-11
-2.02674e-11
-1.94102e-11
-9.90011e-12
-1.00535e-11
-7.07069e-12
-2.05147e-11
-1.23741e-11
-1.80031e-11
-2.73781e-11
-2.31561e-11
-4.16631e-12
3.41851e-11
-1.80201e-11
-4.23947e-11
-1.30162e-11
4.60517e-11
-3.49678e-12
-2.07688e-11
-2.62643e-11
3.25107e-11
-1.4026e-11
-2.10005e-12
-8.69522e-12
-3.12538e-11
-1.89116e-11
1.20022e-13
-2.6968e-11
-3.23105e-11
3.68564e-12
2.43409e-11
-9.24042e-12
-1.84702e-11
2.71134e-11
-2.63701e-11
-1.84473e-11
-9.12721e-12
1.71891e-12
-3.10578e-11
-1.62603e-11
2.53687e-12
-4.34737e-11
3.05447e-12
-2.93303e-11
-2.30729e-11
1.1918e-12
-4.11067e-11
-2.82345e-11
-7.33061e-12
1.97364e-12
-3.61522e-11
6.63913e-12
-1.69798e-11
-1.67506e-11
7.07764e-12
-3.18959e-11
-2.00656e-11
4.87956e-13
-3.2004e-13
-2.15052e-11
-4.51155e-12
2.85661e-12
8.60992e-12
-1.94589e-11
-1.48124e-12
5.91641e-12
-3.34701e-13
-8.52646e-12
3.72835e-12
3.28449e-12
3.4736e-14
-1.64683e-11
1.05163e-11
1.30158e-12
6.78915e-12
8.2669e-13
2.01224e-12
9.26496e-12
7.48055e-12
-7.36006e-12
2.97334e-12
6.43414e-12
-3.29995e-14
-1.07193e-11
1.36908e-11
-1.41997e-12
-1.58725e-11
2.32991e-11
-3.48716e-12
-5.03478e-12
-4.95937e-12
1.73288e-11
1.7896e-13
-6.62694e-12
-9.5442e-12
1.09585e-11
-2.86301e-12
9.86776e-12
-1.96751e-12
-4.85776e-12
1.37649e-11
-9.74662e-12
-3.461e-12
-3.90697e-12
-7.36905e-12
3.29727e-12
2.17448e-11
-4.85442e-12
-7.02336e-12
2.50107e-11
-5.87411e-12
-6.56956e-12
2.61582e-11
-5.86729e-12
-6.37908e-12
2.4726e-11
-4.89206e-12
-6.09467e-12
2.17223e-11
-3.64523e-12
-4.75486e-12
1.78355e-11
-1.67038e-12
-4.97047e-12
1.39282e-11
-7.61194e-13
-8.53203e-12
-3.86287e-13
8.00949e-12
-1.19092e-11
2.50328e-12
1.79201e-11
-9.27457e-12
2.25989e-11
8.53864e-12
-2.59439e-11
4.2124e-11
2.14712e-11
5.72565e-11
-3.18278e-11
-4.33288e-11
2.88242e-11
-5.70127e-11
-2.35789e-11
6.84866e-11
3.29916e-11
-2.67598e-11
-6.19021e-11
7.84022e-11
3.48322e-11
-6.65464e-11
-2.51869e-11
8.35164e-11
3.3874e-11
-2.5262e-11
-6.63508e-11
8.60042e-11
2.99291e-11
-2.49891e-11
8.18349e-11
2.59438e-11
6.99756e-11
-2.46296e-11
-4.87266e-11
5.32237e-12
5.46191e-11
-2.01337e-11
-3.62264e-11
2.2365e-11
1.59029e-11
2.58567e-12
-2.95766e-12
2.72011e-12
2.19485e-11
-5.80656e-12
-3.20414e-12
2.86977e-11
-6.70499e-12
-4.04494e-12
3.09412e-11
-5.08824e-12
-5.16106e-12
3.22328e-11
-4.95715e-12
-4.94042e-12
3.08724e-11
-6.36567e-12
-3.71915e-12
2.6711e-11
-6.2086e-12
-3.17371e-12
2.16229e-11
-4.33234e-12
-1.89269e-12
1.61169e-11
-3.46918e-12
-1.25758e-12
9.30009e-12
-1.92529e-12
-5.27696e-12
1.94701e-11
2.47015e-12
-5.05051e-12
4.63153e-11
-4.33355e-11
-3.20359e-12
-2.78727e-12
3.48809e-11
-3.57497e-11
-1.39212e-12
-1.44516e-12
2.42824e-11
-2.44859e-11
-1.13724e-12
-1.26736e-12
1.22236e-11
-1.22292e-11
-1.7106e-13
-2.07251e-11
2.0524e-11
5.23439e-12
-6.29941e-12
-7.17045e-12
1.45283e-12
4.16011e-12
-5.85502e-12
3.65672e-11
-3.4213e-11
-3.66784e-12
-4.6492e-12
1.55586e-11
-1.46884e-11
-2.07474e-12
-2.15588e-11
2.2125e-11
1.06739e-11
-1.58878e-11
-1.91473e-11
5.9237e-12
1.20176e-11
-1.58144e-11
-3.31499e-11
-4.67642e-12
3.44954e-11
-1.26646e-11
-1.41917e-11
-3.29481e-12
1.43378e-11
-2.18586e-11
2.13072e-11
-3.75447e-11
2.54329e-11
-3.88489e-11
1.3051e-11
2.44706e-11
-3.43431e-11
3.7321e-11
-3.60159e-11
-5.80966e-12
-2.19204e-11
1.97058e-11
-2.10868e-11
-1.10409e-11
-1.58774e-11
8.59697e-12
-9.17103e-12
-5.46808e-12
-1.55706e-11
1.48904e-11
-4.70411e-11
3.18448e-11
-4.52788e-11
1.48415e-11
2.88516e-11
-4.48446e-11
2.7811e-11
-9.34017e-13
-3.15725e-11
1.76762e-11
-1.43948e-11
-2.82337e-11
1.06901e-11
-6.98365e-12
-9.80162e-12
-6.17722e-11
5.17559e-11
4.7266e-09
1.71586e-09
-1.0125e-09
1.26568e-10
4.84732e-10
2.75218e-10
-5.46319e-12
5.17461e-09
2.13975e-09
-1.39421e-09
1.61021e-10
6.01399e-10
3.55052e-10
-6.27426e-11
5.53876e-09
2.47209e-09
4.38222e-10
6.23984e-10
2.12216e-10
-2.45053e-11
-1.78261e-09
5.88355e-09
2.41086e-09
1.41939e-09
-2.06961e-09
6.24516e-09
2.59233e-09
1.54898e-09
-2.27931e-09
6.54639e-09
2.43163e-09
1.53664e-09