/*--------------------------------*- C++ -*----------------------------------*\
| =========                 |                                                 |
| \\      /  F ield         | OpenFOAM: The Open Source CFD Toolbox           |
|  \\    /   O peration     | Version:  5.0                                   |
|   \\  /    A nd           | Web:      www.OpenFOAM.org                      |
|    \\/     M anipulation  |                                                 |
\*---------------------------------------------------------------------------*/
FoamFile
{
    version     2.0;
    format      ascii;
    class       surfaceScalarField;
    location    "60";
    object      phiRest;
}
// * * * * * * * * * * * * * * * * * * * * * * * * * * * * * * * * * * * * * //

dimensions      [0 3 -1 0 0 0 0];

internalField   nonuniform List<scalar> 
105569
(
-4.97882e-11
2.40984e-11
-2.37908e-11
-7.26476e-12
-4.48908e-11
1.79059e-11
-1.87078e-11
-4.09635e-12
-3.82484e-11
1.24155e-11
-1.31632e-11
-5.89589e-12
6.88283e-12
-8.00352e-12
-3.18379e-12
3.10831e-11
-5.27502e-12
4.0585e-11
-6.96529e-12
4.75752e-11
-5.80405e-12
-8.19431e-12
-5.79922e-11
-3.37333e-11
-6.63284e-12
-5.47511e-11
-2.82884e-11
-4.78305e-12
-4.86924e-11
-2.31875e-11
-6.66224e-12
-4.58423e-11
-1.75577e-11
-4.00116e-12
-4.08595e-11
-1.24074e-11
-5.73985e-12
-7.77706e-12
-2.99504e-12
-5.38426e-11
-3.2737e-11
-5.95422e-12
-5.12109e-11
-2.7446e-11
-3.47427e-12
-4.71641e-11
-2.18819e-11
-5.35248e-12
-4.45438e-11
-1.71035e-11
-3.07515e-12
-4.05235e-11
-1.16331e-11
-4.7956e-12
-7.19568e-12
-2.42911e-12
6.89269e-10
-4.79666e-11
1.23481e-10
2.74883e-11
9.30993e-10
-9.00651e-11
-3.2583e-10
4.57707e-11
7.39834e-10
-1.27938e-10
1.02064e-10
1.807e-10
3.63332e-11
9.93439e-10
-1.72199e-10
5.33489e-11
2.36528e-10
-3.71279e-10
7.8623e-10
-2.13875e-10
8.8279e-11
3.9634e-11
2.93171e-10
1.05096e-09
-2.61213e-10
-4.15309e-10
5.54822e-11
3.56318e-10
8.34175e-10
-3.04952e-10
7.26675e-11
4.16937e-11
4.07373e-10
1.10794e-09
-3.49162e-10
-4.54259e-10
5.71874e-11
4.72477e-10
8.67203e-10
-3.88924e-10
6.1739e-11
4.20104e-11
1.16143e-09
-4.36003e-10
-4.87759e-10
6.06975e-11
9.14592e-10
-4.7072e-10
3.8819e-11
4.87017e-11
1.2048e-09
-5.06076e-10
-5.32182e-10
7.23295e-11
9.43914e-10
-5.30244e-10
6.67517e-11
1.15408e-11
1.23609e-09
-5.51122e-10
9.60657e-11
-5.76437e-10
9.66496e-10
-5.66935e-10
9.47068e-11
-2.5855e-11
1.26108e-09
-5.79757e-10
1.26211e-10
-6.29215e-10
9.81918e-10
-5.92832e-10
1.27005e-10
-6.61221e-11
-5.99592e-10
1.52291e-10
-6.65712e-10
-6.09314e-11
-4.13179e-11
5.96377e-11
-1.8554e-12
-5.9555e-11
-4.28198e-11
2.07594e-12
-6.06411e-11
-4.38452e-11
-5.74463e-12
-5.86943e-11
-4.49717e-11
-6.17847e-12
-5.78457e-11
-4.26224e-11
-2.76043e-12
-5.58699e-11
-3.89561e-11
-4.96814e-12
-5.42535e-11
-3.56936e-11
-3.14602e-12
-5.06726e-11
-3.05443e-11
-5.77387e-12
-4.85581e-11
-2.60874e-11
-3.47333e-12
-4.45673e-11
-2.02663e-11
-5.6069e-12
-4.27697e-11
-1.54819e-11
-3.41974e-12
-3.91603e-11
-9.99747e-12
-5.24571e-12
-3.75439e-11
-5.69083e-12
-3.12178e-12
-3.47129e-11
-1.74426e-12
-4.13233e-12
1.41287e-12
-2.06034e-12
6.84398e-10
-6.31014e-11
2.92908e-11
1.6158e-10
9.27763e-10
-1.13817e-10
4.83462e-11
-2.67965e-10
7.36973e-10
-1.60727e-10
3.49722e-11
1.88596e-10
9.89368e-10
-2.12173e-10
5.15499e-11
-2.63979e-10
7.77149e-10
-2.60874e-10
3.35418e-11
2.25665e-10
1.03981e-09
-3.21021e-10
4.82366e-11
-2.51095e-10
8.09498e-10
-3.68882e-10
3.09115e-11
2.63315e-10
1.07232e-09
-4.2445e-10
4.73803e-11
-2.34918e-10
8.37943e-10
-4.7894e-10
2.84738e-11
2.95904e-10
1.09815e-09
-5.23836e-10
4.60011e-11
-2.1838e-10
8.50507e-10
-5.73597e-10
3.08419e-11
3.19662e-10
1.11371e-09
-6.09453e-10
5.35304e-11
-2.13357e-10
8.58478e-10
-6.43903e-10
4.30145e-11
3.25858e-10
1.13091e-09
-6.71719e-10
7.18611e-11
-2.23698e-10
8.71751e-10
-6.87968e-10
7.16296e-11
3.08546e-10
1.12905e-09
-6.95423e-10
1.05187e-10
-2.46821e-10
8.67603e-10
-7.17121e-10
1.0312e-10
2.82604e-10
-7.2146e-10
1.2918e-10
-2.69084e-10
-2.07552e-11
-2.40622e-11
-8.69773e-12
-2.01496e-11
-2.29771e-11
-8.69165e-12
-2.0401e-11
-2.14791e-11
-6.43292e-12
-2.00973e-11
-2.03396e-11
2.63225e-11
-6.28519e-12
-2.1257e-11
-1.86856e-11
2.57717e-11
-5.9253e-12
-2.57606e-11
-1.48268e-11
2.71495e-11
-7.81855e-12
-2.99376e-11
-1.65667e-11
2.96841e-11
-8.9396e-12
-3.59676e-11
-2.12936e-11
3.46103e-11
-7.28722e-12
-4.10327e-11
-2.76372e-11
3.69621e-11
-4.25976e-12
-4.33581e-11
-3.0969e-11
3.88211e-11
-5.52822e-12
-4.66421e-11
-3.16787e-11
3.85301e-11
-3.56698e-12
-4.58933e-11
-3.09578e-11
3.6536e-11
-6.32793e-12
-4.67199e-11
-2.91975e-11
3.35971e-11
-3.57323e-12
-4.46892e-11
-2.57949e-11
2.91476e-11
-5.38368e-12
-4.40914e-11
-1.25071e-11
2.36221e-11
-1.17136e-11
-4.12191e-11
-1.38786e-11
1.90015e-11
-7.99552e-12
-4.19722e-11
-8.00025e-12
1.44182e-11
-5.66318e-12
-3.75943e-11
-3.65524e-12
8.21739e-12
-8.93848e-12
-3.66582e-11
1.82708e-12
4.03299e-12
-6.7967e-12
-3.17514e-11
1.16638e-12
-1.77163e-12
-4.3023e-12
-2.98822e-11
-2.01177e-12
-4.492e-12
4.63447e-12
-2.59854e-11
-5.84734e-12
6.89197e-12
-2.81694e-12
6.918e-12
4.91645e-09
-5.52351e-10
-7.91094e-10
-5.2955e-11
3.24676e-10
2.98767e-10
-7.90226e-11
5.34838e-09
-7.72019e-10
-8.76978e-10
3.46815e-10
-6.94111e-11
-6.96705e-11
3.51422e-10
6.57901e-10
5.82885e-09
-1.10606e-09
-8.87431e-10
-9.71527e-11
3.34704e-10
-6.85462e-11
3.80482e-10
9.63526e-10
6.20475e-09
-1.29905e-09
-8.57317e-10
2.84166e-10
3.93047e-10
-8.66581e-11
-7.23178e-11
1.26221e-09
6.13974e-09
-1.26688e-09
-7.48728e-10
2.71998e-10
3.99303e-10
1.57432e-09
-8.17482e-11
-8.32852e-11
6.01536e-09
-1.46369e-09
-6.96157e-10
2.65341e-10
4.01386e-10
-8.82009e-11
-1.66476e-10
1.87216e-09
5.90609e-09
-1.71444e-09
-6.36136e-10
2.1685e-10
3.88721e-10
-9.00073e-11
-2.41798e-10
2.18606e-09
5.75169e-09
-1.94415e-09
-5.70434e-10
1.66182e-10
3.81591e-10
-8.52959e-11
-2.71727e-10
2.47821e-09
5.57815e-09
-2.18406e-09
-5.67872e-10
-2.91136e-10
1.30985e-10
3.84377e-10
-7.24911e-11
2.77371e-09
1.51062e-09
-2.50114e-09
-6.14803e-10
9.55361e-10
1.26296e-09
1.89277e-09
-2.86163e-10
7.56391e-11
3.34003e-10
-4.56473e-11
2.99454e-09
1.36281e-09
3.59829e-10
-9.32434e-10
5.15549e-12
7.1523e-10
1.74251e-09
-3.16814e-10
-9.79463e-10
8.34404e-10
8.21733e-11
1.32497e-09
4.75656e-10
-1.027e-09
9.2653e-11
8.76213e-10
1.67524e-09
-3.21775e-10
-1.07358e-09
9.08419e-10
1.36664e-10
1.2663e-09
4.39516e-10
-1.09545e-09
1.41879e-10
9.22981e-10
1.60485e-09
-3.40137e-10
9.04356e-10
-1.07675e-09
1.73982e-10
1.1827e-09
3.92072e-10
9.13345e-10
-1.05439e-09
1.71111e-10
1.33657e-09
-3.21199e-10
8.99659e-10
-9.3563e-10
2.03296e-10
1.07185e-09
2.40539e-10
-1.03341e-09
8.64955e-10
1.92635e-10
1.17206e-09
-3.23512e-10
-8.23556e-10
8.43455e-10
2.03394e-10
1.24027e-10
-9.1922e-10
8.22649e-10
1.88556e-10
-3.41448e-11
-4.58114e-12
-2.18271e-11
-4.10413e-11
4.18214e-11
-2.68356e-11
-8.08669e-12
-4.87468e-11
4.88858e-11
-3.06477e-11
-1.05293e-11
-5.65804e-11
5.28444e-11
-3.52698e-11
-9.73865e-12
-6.40045e-11
5.77388e-11
-3.96921e-11
-1.06218e-11
-6.96371e-11
6.12716e-11
-4.92773e-11
-6.36295e-12
-3.40519e-11
5.90369e-11
-6.91073e-11
-2.55179e-11
-7.24159e-12
4.65601e-11
-3.68653e-11
-3.65043e-11
-1.62949e-11
2.36803e-11
-4.14587e-12
-1.04801e-11
-2.52517e-11
2.67354e-11
-1.43224e-11
-3.45607e-12
-3.36602e-11
3.39322e-11
-2.30076e-11
-2.51566e-12
-4.08173e-11
3.95298e-11
-2.94746e-11
-2.89812e-12
-4.77596e-11
4.42762e-11
-3.48744e-11
-2.45893e-12
-3.99937e-11
4.29201e-11
-3.50886e-11
-1.55974e-11
-7.51593e-12
3.39966e-12
-1.09319e-11
-2.49447e-11
-1.19672e-11
1.29111e-11
-6.22082e-12
-2.24063e-12
-1.77692e-11
1.14819e-11
-9.4734e-12
3.79143e-12
-2.25071e-11
1.40939e-11
-7.96118e-12
-1.39695e-12
-1.8946e-11
1.22282e-11
-5.99887e-12
-9.79195e-12
-5.09051e-12
-2.97216e-12
-1.52148e-11
4.33149e-12
-6.75858e-12
4.30898e-12
-2.20329e-12
-4.40279e-13
-8.9881e-12
1.78657e-12
-2.55974e-13
6.95979e-13
-1.19761e-11
1.34802e-12
5.61359e-12
-3.97803e-12
-1.29261e-11
-7.08518e-13
4.59342e-12
-2.93842e-12
-7.56704e-12
-5.32544e-12
6.91218e-12
-6.94662e-12
-1.07369e-12
-5.07628e-12
7.08934e-12
-8.50689e-12
-2.34984e-12
-1.68831e-12
5.33038e-12
-2.3674e-12
-3.11619e-12
-3.14111e-12
6.30987e-12
-2.40384e-12
-3.06312e-12
-3.76031e-12
7.17056e-12
-3.4648e-12
-3.24245e-12
-3.70215e-12
6.84546e-12
-2.96548e-12
-4.3953e-12
-2.31597e-12
5.50088e-12
-2.03321e-12
1.39346e-12
-9.39124e-13
-1.37045e-11
8.85428e-12
5.21059e-12
-9.45934e-12
3.32754e-12
5.86423e-12
-8.3851e-12
4.03036e-12
6.37181e-12
-7.66329e-12
3.39669e-12
5.40408e-12
-5.958e-12
3.78591e-12
-3.08749e-12
1.72848e-12
-1.38009e-11
-6.97945e-14
1.35367e-11
-2.75703e-12
-1.57221e-11
-1.82502e-12
-2.21373e-12
-1.48265e-11
-3.13472e-12
-5.42593e-12
-1.3695e-11
-4.59915e-12
-4.91897e-12
-1.20467e-11
-5.55392e-12
-5.55705e-12
-1.09852e-11
-4.88725e-12
7.24152e-12
-3.41894e-12
-9.15287e-12
-3.52749e-12
8.69394e-12
-7.00142e-12
-5.652e-12
-6.99114e-12
7.2145e-12
-3.72698e-12
-5.26847e-12
-2.5513e-12
4.07954e-12
-1.91345e-12
2.9865e-12
-3.256e-12
-1.63684e-11
1.13687e-11
8.95108e-12
-1.08887e-11
2.37401e-12
6.30689e-12
-1.16519e-11
7.30583e-12
5.65247e-12
6.45708e-12
-2.17825e-11
1.59792e-11
1.86891e-12
-9.58735e-12
1.18984e-11
1.47405e-12
6.46561e-12
-1.66887e-12
7.42807e-12
-2.74478e-12
-3.10708e-12
1.05085e-11
-3.3767e-12
-5.25994e-12
1.06115e-11
-1.578e-13
-4.54692e-12
1.13902e-11
-1.75859e-13
-3.74063e-12
1.05932e-11
8.1222e-13
-1.84378e-12
1.02972e-11
8.71225e-13
-6.48349e-13
-1.60817e-12
7.25762e-12
-2.29303e-12
6.93762e-12
1.10406e-11
-4.44152e-12
9.80434e-12
2.36997e-12
-1.84633e-12
7.24484e-12
2.3122e-12
1.59211e-12
6.3062e-12
-2.17311e-12
4.8958e-12
4.33799e-12
2.37988e-11
-1.83024e-11
-3.52771e-12
1.47476e-11
-9.07104e-12
2.65743e-11
1.63031e-11
-4.3324e-12
2.37938e-11
1.92656e-11
-4.25867e-12
1.75343e-11
1.5999e-11
4.35195e-12
2.04438e-11
9.33541e-12
-7.64277e-13
-3.82199e-12
4.7558e-11
2.27104e-11
-4.60015e-11
4.48573e-11
-3.23665e-11
4.78986e-11
5.56161e-11
-1.10966e-11
5.47207e-11
5.22223e-11
-1.61245e-11
5.0344e-11
5.30243e-11
-4.37109e-12
4.5852e-11
4.9675e-11
-5.65319e-12
3.98179e-11
4.65737e-11
-6.60716e-12
3.3842e-11
4.32365e-11
-1.05243e-11
2.83814e-11
3.89743e-11
-9.83196e-12
-2.13315e-11
2.35074e-11
3.32081e-11
-7.00138e-12
4.0995e-11
4.32676e-11
3.57708e-11
2.33042e-11
4.31877e-11
3.28671e-11
2.25396e-11
3.80991e-11
2.87672e-11
2.09967e-11
3.59444e-11
2.68437e-11
1.93114e-11
3.14945e-11
1.71216e-11
2.80349e-11
-1.72202e-11
2.66839e-11
-7.70225e-12
-1.83172e-11
2.9353e-11
-8.94252e-12
-2.03272e-11
3.17464e-11
-8.73755e-12
-2.12804e-11
3.30395e-11
-9.54484e-12
3.28204e-11
-7.28778e-12
-4.44738e-11
4.02798e-11
-7.69345e-12
-4.79819e-11
4.54376e-11
-8.71915e-12
-5.22125e-11
5.66047e-11
-1.3399e-11
-5.44763e-11
6.06007e-11
-1.51009e-11
-5.79252e-11
5.93457e-11
-9.32389e-12
-5.99695e-11
6.05199e-11
-8.8008e-12
-6.1469e-11
6.03981e-11
-5.87473e-12
-7.26877e-11
7.24466e-11
-9.00541e-12
-4.65628e-11
2.9664e-11
-1.72208e-13
-1.35923e-11
3.30528e-11
-4.33128e-11
-1.72881e-11
1.36557e-11
-6.25489e-13
-2.54738e-11
1.9551e-11
4.6321e-12
-3.03085e-11
2.45633e-11
-4.64956e-13
-3.3403e-11
2.58474e-11
-6.45213e-12
-2.71104e-11
-1.73516e-11
1.99367e-11
-8.87886e-12
-6.8133e-12
-4.70137e-12
-2.04889e-11
4.89309e-12
-6.25665e-12
2.98429e-12
-1.23088e-12
4.35173e-12
-9.8354e-13
1.37121e-11
1.66307e-11
-1.52584e-11
-1.07313e-11
2.13399e-11
-9.34293e-12
-4.19381e-11
3.9339e-11
-5.26016e-12
-4.3215e-11
-7.88575e-12
-3.17972e-11
-1.3696e-11
-1.02261e-11
-7.70135e-12
-8.78827e-12
-2.52833e-11
9.97523e-12
-6.61559e-12
1.65457e-12
-1.87136e-12
-6.99802e-12
1.80386e-12
-6.11423e-13
-6.19679e-12
7.9994e-13
-1.77912e-12
-6.18002e-12
1.12597e-13
-2.88753e-13
1.00699e-11
-1.07944e-11
-2.51547e-11
1.96983e-11
1.37281e-11
-1.71639e-12
1.54985e-11
-4.62351e-12
1.43862e-11
-5.08195e-12
-6.62429e-12
-4.93394e-12
1.37383e-11
-4.25908e-11
5.41641e-11
3.80575e-12
-3.5298e-12
-6.00264e-11
1.20405e-11
4.50206e-11
4.17491e-12
-9.37336e-12
4.0305e-11
6.83115e-12
-1.3839e-11
-1.10273e-11
2.02617e-11
3.94e-11
-9.1025e-12
1.38007e-11
-5.35376e-11
1.10888e-11
-8.74009e-12
1.65678e-11
3.65058e-11
-1.71693e-12
-4.99749e-11
6.18455e-12
-3.40061e-12
1.34088e-11
1.36277e-12
4.66343e-12
9.79709e-12
-4.86553e-11
2.94256e-11
-8.22987e-12
4.96527e-12
4.18347e-12
-9.66089e-12
4.54043e-12
-2.41745e-12
-5.63306e-12
7.23022e-12
-5.64517e-12
-4.24165e-13
6.19227e-12
-4.67808e-12
-6.72324e-12
-1.86883e-12
5.86715e-12
-2.00969e-12
-2.41463e-12
-3.01306e-12
7.95552e-12
-3.09505e-12
-3.71834e-12
-3.32044e-12
9.94612e-12
-4.3106e-12
-4.44518e-12
1.11416e-11
-3.70985e-12
-4.15801e-12
1.21079e-11
-5.22756e-12
-5.11007e-12
1.21298e-11
-4.33524e-12
-4.70401e-12
1.15378e-11
-6.44563e-12
-3.06258e-12
-7.99984e-12
1.02502e-11
-3.89403e-12
-2.3935e-12
-5.19585e-12
7.95708e-12
-3.43199e-12
-3.33023e-12
-2.56513e-12
5.16776e-12
-1.66723e-12
-5.47073e-14
6.55619e-13
-1.02135e-11
6.28193e-12
3.61524e-12
-1.05878e-11
4.35357e-12
5.06718e-12
-1.24405e-11
5.79341e-12
-1.37706e-11
9.8991e-12
-1.52788e-11
-4.95532e-12
-1.15372e-11
-7.4897e-12
-9.58983e-12
-5.32432e-12
-7.1386e-12
7.69445e-12
-6.06988e-12
-5.5932e-12
-4.46051e-12
4.98555e-12
-2.07217e-12
2.1234e-12
-2.16998e-12
-1.64534e-11
1.09062e-11
-1.11925e-11
5.60066e-12
-5.52607e-12
-6.1873e-12
4.68386e-09
-6.0422e-10
-8.69444e-10
-2.29045e-11
3.21894e-10
3.06404e-10
-4.11086e-11
5.27435e-09
-8.21774e-10
-2.91394e-11
3.57851e-10
3.62243e-10
-3.19373e-11
-9.80076e-10
5.79985e-09
-9.71041e-10
3.35606e-10
3.93391e-10
-3.2444e-11
-7.15582e-12
-1.0159e-09
5.98086e-09
-9.55537e-10
3.17923e-10
3.88921e-10
-4.47061e-11
4.19197e-12
-9.97874e-10
5.98418e-09
-1.00478e-09
6.69657e-10
-9.67261e-10
6.18138e-09
-1.20885e-09
-7.96267e-10
5.41027e-10
6.00806e-09
-1.12584e-09
-7.09595e-10
3.8276e-10
2.76574e-10
-4.16922e-11
-7.26134e-11
5.65558e-09
-1.09419e-09
-6.63461e-10
-1.36915e-10
2.60712e-10
3.6226e-10
-9.03736e-11
5.33453e-09
-1.27463e-09
-5.98888e-10
2.03595e-10
3.34572e-10
-8.95871e-11
-1.98184e-10
5.0229e-09
-1.45967e-09
-5.68594e-10
1.4672e-10
3.11672e-10
-8.44345e-11
-2.18136e-10
1.35405e-09
-1.75102e-09
-6.04218e-10
8.26523e-10
1.06454e-09
1.67084e-09
6.39058e-11
2.04562e-10
-7.06516e-11
-2.3678e-10
1.16339e-09
3.23677e-10
-6.91044e-10
-2.92199e-11
5.87214e-10
1.46722e-09
-2.67152e-10
3.21671e-11
-7.55066e-10
6.86222e-10
1.07612e-09
4.32746e-10
-8.03432e-10
7.31689e-10
3.00849e-11
1.22475e-09
-2.19139e-10
-7.49891e-10
7.07612e-11
7.49634e-10
9.47764e-10
3.22127e-10
-8.83771e-10
7.67518e-10
7.10988e-11
1.03086e-09
-2.10292e-10
-7.22192e-10
1.01037e-10
7.48346e-10
8.26124e-10
1.94537e-10
-8.25529e-10
7.33489e-10
1.02232e-10
8.44898e-10
-2.06449e-10
-6.13974e-10
1.2591e-10
6.7573e-10
7.63584e-10
-1.211e-10
7.20783e-10
-6.41318e-10
1.22949e-10
6.82451e-10
-4.94021e-10
-1.9563e-10
6.50949e-10
1.19833e-10
5.96815e-10
-1.97056e-10
-4.33717e-10
6.02876e-10
1.13531e-10
-1.93611e-10
-3.63383e-10
5.31927e-10
1.06433e-10
-2.53799e-11
-4.50167e-11
-3.06699e-11
5.38251e-11
-6.01021e-12
4.36826e-11
-2.76921e-11
-3.53596e-11
-1.61451e-11
-1.03059e-11
-6.39355e-12
-2.06231e-11
-8.11217e-12
-1.80563e-11
-2.47219e-11
-2.22254e-11
-8.94391e-12
-3.19028e-11
-2.23623e-11
-1.01472e-11
-3.87757e-11
-2.75458e-11
-1.48573e-11
-5.49812e-11
-3.50173e-11
-1.78826e-11
-6.18759e-11
-4.17349e-11
7.82672e-12
4.08036e-11
-4.03438e-11
-5.658e-11
-9.32268e-12
4.43681e-11
-1.30595e-11
-2.85612e-11
-4.11505e-11
4.24292e-11
-2.26978e-11
-1.13043e-11
-2.06468e-12
-3.21923e-11
-1.96984e-11
-2.82233e-13
-3.61255e-11
-2.35221e-11
-7.4209e-12
-3.3196e-11
-1.05244e-11
-2.74911e-11
-1.41007e-11
-3.66393e-13
-2.96596e-11
-1.37953e-11
-6.12352e-12
-4.05144e-13
-1.6412e-11
-4.25389e-12
-2.60608e-12
-1.50154e-11
-6.05602e-12
-3.30384e-12
-3.76905e-12
4.35114e-12
-1.2343e-11
-3.25402e-12
1.23061e-12
-2.64281e-12
2.6059e-12
-5.31875e-12
3.47693e-12
6.14831e-12
-3.07846e-12
-2.62659e-12
-4.32224e-12
5.81088e-12
1.93368e-13
4.45087e-12
-3.35927e-12
-3.91133e-12
-9.83817e-13
5.0306e-12
-1.88089e-12
-1.97418e-12
-1.77578e-12
8.10808e-12
-3.21718e-12
-4.10138e-12
-2.30718e-12
1.09722e-11
-4.5759e-12
-3.56011e-12
1.3533e-11
-4.32701e-12
-3.40581e-12
1.55544e-11
-5.7649e-12
-4.56619e-12
1.67793e-11
-4.47951e-12
-4.12673e-12
1.74219e-11
-5.75605e-12
-5.07002e-12
1.74611e-11
-4.39064e-12
-4.23138e-12
1.66335e-11
-5.93711e-12
-4.34828e-12
1.51377e-11
-4.77347e-12
-3.83294e-12
1.28133e-11
-5.37449e-12
-3.07107e-12
9.02266e-12
-4.6192e-12
-1.92038e-12
-3.78972e-12
4.2839e-12
-1.6459e-12
-1.36361e-12
5.14994e-12
-9.61655e-12
3.9093e-12
-1.09976e-11
6.50061e-12
-9.01504e-12
-4.50442e-12
-6.57329e-12
7.16593e-12
-4.62494e-12
-3.59917e-12
-4.48959e-12
3.31419e-12
-1.79974e-12
7.93643e-13
3.4655e-12
7.2447e-12
-1.51033e-11
-1.21339e-11
6.26911e-12
-1.41007e-11
-8.45387e-12
-8.49077e-12
5.90382e-12
-6.69568e-12
-4.74436e-12
-6.23884e-12
3.2787e-12
-7.87203e-13
7.18365e-13
4.00511e-12
1.31474e-11
1.17826e-11
9.37438e-09
-2.90025e-09
-1.12419e-09
2.51538e-09
9.98133e-09
-3.16447e-09
2.85957e-09
-1.17904e-09
1.04306e-08
-1.15516e-09
-3.35296e-09
3.17143e-09
1.07789e-08
-1.17034e-09
3.47107e-09
-3.50641e-09
1.09864e-08
-3.61061e-09
-1.09246e-09
3.7469e-09
1.10871e-08
-1.03755e-09
-3.68972e-09
3.9304e-09
1.10257e-08
-3.78079e-09
-9.74004e-10
4.17995e-09
1.08758e-08
-9.39196e-10
-3.86943e-09
4.38815e-09
1.06428e-08
-3.93519e-09
-9.28884e-10
4.52917e-09
1.02084e-08
-8.24687e-10
-3.89154e-09
4.5358e-09
9.85692e-09
-4.36757e-09
-8.76155e-10
4.93e-09
6.77299e-10
3.08712e-11
9.51875e-09
-1.06478e-09
-4.49025e-09
5.22416e-09
7.29445e-10
9.34736e-11
9.17358e-09
-1.15058e-09
-4.76129e-09
5.43947e-09
7.62134e-10
1.54824e-10
8.75159e-09
-4.87683e-09
-1.27917e-09
5.63512e-09
2.07001e-10
8.06757e-10
-1.19243e-09
8.26063e-09
-7.70287e-10
-1.32233e-09
-1.81278e-09
-1.33867e-09
2.66275e-10
8.54238e-10
2.27754e-09
-1.15814e-09
-9.439e-10
2.74415e-10
-1.64234e-09
1.53154e-09
-2.60802e-10
-1.14903e-09
2.99945e-10
1.85589e-09
-9.49367e-10
-1.08518e-09
3.06795e-10
1.19631e-09
-2.40376e-11
-4.15486e-11
-2.7849e-11
-5.599e-12
-3.55415e-11
-2.7765e-11
-1.704e-11
-8.15261e-12
-1.12412e-11
-2.76215e-11
-2.14601e-11
-1.29728e-11
-3.53772e-11
-2.24087e-11
-8.79194e-13
3.10467e-11
-4.61203e-11
-2.66665e-11
-6.95513e-12
4.43668e-11
-5.73662e-11
-3.42901e-11
-7.42989e-12
5.29664e-11
-3.17529e-11
-5.6063e-11
-2.76066e-11
5.80542e-11
-7.69698e-12
4.75635e-11
-3.76832e-11
-3.39349e-11
-2.0296e-11
-5.99648e-12
-8.94891e-12
-2.95999e-11
-1.84147e-11
-7.29707e-12
-3.8821e-11
-2.85143e-11
-3.99838e-12
-3.21903e-11
-4.399e-11
-1.92207e-11
-8.16761e-12
-2.71787e-11
-2.54033e-11
-1.58577e-11
1.16099e-13
-3.73027e-12
-2.50219e-11
-1.31656e-11
2.62976e-12
-2.49149e-11
-1.63389e-11
-7.29205e-12
-4.69221e-12
-4.75151e-12
-1.63079e-11
8.37964e-13
-7.65624e-12
-2.5358e-12
-2.47567e-12
7.97374e-12
-1.2261e-11
-1.40907e-12
-1.12431e-13
-9.38798e-12
-1.5298e-12
-5.59945e-12
-2.10526e-12
3.64536e-12
-8.2553e-12
-2.67166e-12
2.46819e-12
-2.39795e-12
1.29952e-12
-3.42306e-12
1.51119e-12
7.12857e-12
-2.75075e-12
3.93707e-14
8.06873e-12
-5.38546e-12
9.51844e-13
4.34316e-12
-1.8872e-12
-3.36811e-12
-1.37921e-13
5.6874e-12
-2.12509e-12
-2.47435e-12
-6.55426e-13
9.72505e-12
-4.17958e-12
-1.56714e-12
1.36924e-11
-4.67559e-12
-1.97768e-12
1.66149e-11
-5.23456e-12
-3.21367e-12
1.84695e-11
-3.70263e-12
-3.09298e-12
2.07023e-11
-5.2699e-12
-4.08806e-12
2.15034e-11
-3.73032e-12
-3.4205e-12
2.19132e-11
-5.15994e-12
-4.2402e-12
2.17356e-11
-3.45641e-12
-3.68976e-12
2.06368e-11
-4.55567e-12
-4.48636e-12
1.89133e-11
-2.98136e-12
-3.64603e-12
1.60463e-11
-4.07606e-12
-3.86959e-12
1.1759e-11
-2.51505e-12
-4.46352e-12
7.27903e-12
-2.40297e-12
-9.78815e-12
3.59019e-12
6.88387e-12
-8.79261e-12
1.26841e-11
-3.13836e-12
-1.05428e-11
-5.87457e-12
8.5885e-12
-6.52504e-12
-4.98389e-12
-3.32653e-12
-5.05502e-12
3.80102e-12
-1.29517e-12
-1.48351e-13
4.30895e-12
-1.51789e-11
7.69127e-12
3.67339e-14
-1.36703e-11
8.43106e-12
-1.77369e-11
8.54211e-12
1.26965e-11
-1.65447e-11
-8.2934e-12
-6.57049e-12
-9.30593e-12
6.18281e-12
-5.33989e-12
-8.08374e-12
-5.16498e-12
-5.73921e-12
2.94019e-12
-1.34287e-12
2.50409e-12
3.07846e-12
1.33208e-11
3.05847e-12
9.12972e-12
1.10894e-11
2.13458e-11
-3.67555e-11
-6.39019e-11
4.27021e-11
-3.64695e-11
-6.42359e-11
4.09704e-11
-3.75168e-11
-6.13645e-11
4.093e-11
-3.71991e-11
-6.02091e-11
3.95502e-11
-3.99101e-11
-5.51567e-11
3.918e-11
-4.07814e-11
-5.03705e-11
3.64136e-11
-7.64003e-12
-3.58701e-11
-3.41106e-11
3.68407e-11
-1.67872e-11
-2.44088e-12
-4.97862e-12
-2.33307e-11
-1.09494e-12
-3.12985e-11
-1.19457e-13
-3.54513e-11
-2.25379e-12
-3.96034e-11
-1.68092e-12
-1.12875e-11
1.76808e-10
-9.42302e-11
-1.07881e-11
1.13269e-10
-1.96351e-10
1.61096e-10
-1.00533e-10
-5.45698e-12
1.20018e-10
1.49982e-10
-1.0366e-10
-8.29718e-12
1.20814e-10
1.27582e-10
1.71365e-12
-9.749e-11
1.18054e-10
1.04515e-10
-1.48737e-12
-8.11929e-11
1.04649e-10
-2.36257e-11
-1.60339e-12
9.14342e-11
3.56231e-10
-2.53218e-10
-1.99956e-11
3.26697e-10
-4.1132e-10
1.5909e-11
-2.7829e-10
-4.86525e-11
3.69351e-10
2.97915e-10
7.48235e-11
7.49395e-11
5.12411e-12
7.5021e-11
2.27702e-13
7.25238e-11
4.7687e-13
7.43862e-11
-5.4983e-12
7.15375e-11
-4.44869e-12
-7.40463e-12
-9.96236e-11
-2.11535e-10
-3.25854e-10
-3.98425e-11
-9.01375e-12
-4.099e-11
-1.08262e-11
-4.33193e-11
-8.67178e-12
-1.21438e-11
-2.77458e-11
-4.26239e-11
-2.47083e-11
-6.45273e-12
-3.17143e-11
-3.93151e-11
-2.47458e-11
-1.27657e-11
-1.04882e-11
-3.71905e-11
2.22843e-13
-1.97006e-11
3.19244e-11
-4.83062e-11
-2.92964e-11
-6.71711e-12
4.71315e-11
-3.17914e-11
-4.81506e-11
-2.47095e-11
5.63451e-11
-7.48196e-12
4.71834e-11
-3.82628e-11
-3.32286e-11
-1.76135e-11
-5.1193e-12
-1.14143e-11
-2.69703e-11
-1.766e-11
-7.27188e-12
-4.20252e-11
-2.42955e-11
-1.67115e-11
-2.82872e-11
-4.05701e-11
-8.24664e-12
3.50781e-11
-6.78958e-12
-2.86333e-11
-2.74614e-11
3.45999e-11
-1.64242e-11
-2.52197e-12
-6.25622e-12
-2.692e-11
-1.70317e-11
-9.85257e-13
-4.40801e-11
-2.47644e-11
-2.06465e-12
-3.43176e-11
-3.31154e-11
2.1019e-12
2.12512e-11
-1.33949e-11
-1.48258e-11
-3.37122e-11
2.76165e-11
-1.83673e-11
-6.95362e-12
-1.24048e-12
-1.87283e-11
-9.30222e-12
-6.67705e-12
-5.53175e-12
-9.85381e-13
-1.69609e-11
-6.56342e-12
1.96167e-13
-1.70186e-12
-5.85424e-12
3.19325e-12
-5.31461e-12
-9.04344e-13
3.63474e-12
-5.99959e-12
-2.58328e-12
2.6771e-12
-1.94992e-12
-1.21613e-13
7.04301e-13
-8.61319e-13
7.15233e-12
-4.32081e-12
2.13126e-12
1.28355e-11
-7.13757e-12
7.02877e-13
-1.90117e-12
-3.67419e-12
7.00388e-12
7.24619e-13
-1.8756e-12
-3.00027e-12
4.8525e-12
6.02352e-13
-4.37541e-12
1.01825e-11
4.40426e-13
-5.17464e-12
1.50586e-11
-3.77606e-13
-3.98834e-12
1.84963e-11
-2.01391e-12
-4.11853e-12
2.23669e-11
-2.90224e-12
1.0838e-12
1.82726e-11
-2.51544e-12
-5.87171e-13
2.09027e-11
-3.34125e-12
8.6246e-13
2.14671e-11
-2.39363e-12
-4.03053e-13
2.13686e-11
-2.21847e-12
1.47737e-12
2.0083e-11
-1.09807e-12
5.53153e-13
1.89613e-11
-4.63734e-12
1.48098e-13
2.2302e-11
-3.63019e-12
-3.46755e-12
1.85047e-11
-3.63349e-12
-1.95553e-12
1.37156e-11
-2.04017e-12
-3.4266e-12
9.11046e-12
-1.28056e-12
-4.28501e-12
-6.77237e-13
4.20147e-12
-2.83607e-12
3.84043e-12
6.14668e-12
-8.43244e-12
9.15368e-12
1.06514e-11
-1.59898e-11
1.76513e-11
2.07171e-11
-2.15624e-11
-2.21605e-11
3.02285e-11
2.47762e-11
-1.30453e-11
-3.52774e-11
4.2306e-11
2.86645e-11
-1.70143e-11
-4.5578e-11
5.52343e-11
2.75012e-11
-1.51912e-11
-5.52684e-11
7.17693e-11
3.03302e-11
-2.01251e-11
-6.09631e-11
7.88097e-11
3.10762e-11
-1.7322e-11
-6.49373e-11
8.29872e-11
3.12348e-11
-6.48507e-11
-2.22454e-11
8.65312e-11
2.83834e-11
-1.82762e-11
-6.48108e-11
8.67974e-11
2.65715e-11
-2.22732e-11
-6.11777e-11
8.46725e-11
2.2444e-11
-1.87632e-11
-5.66469e-11
8.06181e-11
1.46927e-11
-2.2007e-11
-4.94542e-11
7.50912e-11
1.04593e-11
-1.78355e-11
-4.13652e-11
5.94426e-11
6.37127e-12
-1.89812e-11
-3.01155e-11
4.8007e-11
5.0883e-12
-1.81098e-11
-1.90809e-11
3.4094e-11
-5.73856e-12
2.02745e-11
-1.32308e-11
-1.00652e-12
4.33519e-12
-1.68295e-11
3.36266e-11
1.43353e-13
4.14635e-12
-4.75126e-12
6.60226e-12
2.91928e-12
1.04119e-11
2.53501e-12
1.54286e-11
-4.86479e-12
9.26779e-13
2.06194e-11
-3.95568e-12
4.2985e-13
1.86889e-11
3.02262e-13
6.85547e-12
2.0383e-11
-4.44141e-12
3.01713e-12
-4.32138e-12
3.20176e-12
4.95754e-12
5.22547e-13
-4.03123e-12
-9.33865e-13
7.45882e-12
2.5909e-13
-6.50463e-12
8.56178e-12
-1.79475e-12
-1.09063e-13
-7.02358e-12
8.90646e-12
-1.51584e-12
-1.43754e-13
-6.87203e-12
8.43343e-12
-1.52789e-12
-4.34544e-13
-5.8958e-12
7.07185e-12
-8.8639e-13
-7.66202e-13
-3.44631e-12
4.15885e-12
-3.81479e-13
-5.7463e-12
9.06553e-12
-5.83427e-12
1.74841e-12
-7.38921e-13
1.05081e-11
4.09825e-14
1.34074e-11
4.28324e-13
1.41095e-11
1.15135e-13
1.47572e-11
9.79636e-13
1.35341e-11
1.09004e-11
2.95187e-11
-1.47233e-11
-1.63086e-12
4.31558e-12
4.50682e-11
-1.08447e-12
-2.04772e-11
1.69449e-12
1.52374e-12
-1.95276e-12
1.22016e-11
1.07809e-12
1.27349e-11
-3.7295e-12
3.42672e-13
1.26127e-11
-2.97292e-12
6.08429e-14
1.14571e-11
-2.7438e-12
-8.0881e-13
9.66338e-12
-1.72362e-12
-2.39891e-12
7.11858e-12
-1.37106e-12
-3.80678e-12
7.59026e-12
2.88238e-12
-6.94209e-13
1.76754e-11
1.58877e-12
-2.23778e-11
-2.78491e-12
2.1793e-11
-1.9873e-11
1.68858e-13
-3.11405e-12
1.6477e-11
-1.5287e-11
-8.62328e-13
-2.08991e-12
1.08649e-11
-1.01429e-11
-1.74751e-12
-1.70629e-12
5.23933e-12
-4.91339e-12
-7.1036e-13
-7.44281e-12
8.32324e-12
-7.19013e-12
4.60296e-12
-7.5994e-12
4.38035e-12
1.92206e-12
-6.83599e-12
1.26243e-11
-2.80515e-12
-1.05845e-11
-5.37801e-12
5.16523e-12
-2.0433e-12
-4.58099e-12
-6.12616e-12
6.86645e-12
1.04266e-11
-1.65451e-11
-1.68108e-11
5.4073e-12
9.58571e-12
-1.34942e-11
-5.04446e-12
8.73562e-12
-7.00985e-12
-1.04689e-11
3.37198e-12
-3.50351e-12
-2.895e-12
-3.93493e-12
4.52813e-12
-3.08779e-11
1.98156e-11
-2.77954e-11
1.78499e-11
9.08906e-12
-2.48869e-11
6.05655e-12
-3.11909e-12
-1.48434e-11
3.90032e-12
-9.56469e-12
-7.42712e-12
-6.96178e-12
1.63035e-12
-2.0857e-12
6.29379e-12
-1.14314e-13
1.97674e-11
8.55561e-12
-7.63427e-12
-3.73402e-11
-3.02779e-11
-2.77648e-11
-9.67141e-12
-1.28203e-11
-4.01896e-11
3.37239e-11
-2.03928e-11
-9.03783e-13
-2.64764e-11
4.66986e-11
-4.00408e-11
-2.03703e-11
-6.63751e-12
4.49329e-11
-2.92708e-11
-3.54994e-11
-1.77401e-11
-1.12047e-11
-6.98825e-12
-3.55859e-11
-1.24146e-11
-1.78896e-11
-4.60363e-11
-2.65404e-11
2.41244e-13
3.67509e-11
-3.40832e-11
-4.98394e-11
-1.2722e-11
5.06061e-11
-7.85446e-12
-3.52319e-11
-3.47024e-11
4.37076e-11
-2.01269e-11
-3.38294e-12
-8.63891e-12
-3.91853e-11
-2.07654e-11
-7.45504e-13
-2.94191e-11
-3.38643e-11
-1.48035e-12
2.55776e-11
-9.85368e-12
-1.82995e-11
2.94551e-11
-3.07197e-11
-1.63967e-11
-8.42979e-12
-2.05739e-12
-2.24453e-11
-1.34164e-11
-5.29914e-12
-2.70994e-11
-9.3589e-12
-1.91013e-11
-1.33758e-11
2.1148e-13
-2.87588e-11
-1.28227e-11
-1.89828e-12
-5.61054e-12
-1.26309e-11
-6.90526e-12
-2.58853e-12
-4.30619e-12
4.53208e-12
-1.38409e-11
-4.24851e-12
5.4555e-12
-5.32002e-12
-2.06291e-12
6.94989e-12
-5.94393e-12
5.27189e-12
-4.56073e-12
3.09205e-12
3.46274e-12
5.66846e-12
9.97233e-13
-7.31801e-13
5.03945e-12
-2.21456e-12
9.03451e-13
1.26459e-11
-5.40319e-12
1.55463e-11
-6.56046e-12
5.63411e-12
4.98489e-12
1.15306e-11
2.54053e-12
-1.74688e-12
6.88089e-12
-2.04203e-12
4.45188e-12
1.4408e-11
-5.90963e-12
2.88199e-12
2.08759e-11
-3.87973e-12
8.35676e-12
-4.02463e-12
1.91677e-11
3.3671e-12
4.10137e-12
-3.86938e-12
4.75752e-12
1.08619e-12
7.95984e-12
-1.27365e-12
-4.40623e-12
1.07247e-11
-9.00383e-12
-2.5887e-12
3.54029e-12
-5.1524e-12
-3.38383e-12
1.57188e-11
2.91891e-12
-4.43403e-12
1.72552e-11
2.31928e-12
-4.25595e-12
1.75886e-11
1.2843e-12
-2.89579e-12
1.65415e-11
7.10754e-13
-2.4641e-12
1.4493e-11
1.21653e-13
-1.4476e-12
1.16984e-11
3.82922e-13
-1.99315e-12
8.84929e-12
-2.7815e-14
-4.69655e-12
3.04718e-13
4.80183e-12
-7.18561e-12
8.1437e-13
1.00844e-11
-3.74186e-12
1.33841e-11
-3.7101e-13
-1.03484e-11
2.52197e-11
2.84912e-12
3.65207e-11
-1.31012e-11
-2.86342e-11
1.66371e-12
-3.90868e-11
-7.07296e-12
4.58961e-11
-5.87824e-13
-1.02704e-11
-4.39436e-11
5.40002e-11
-2.86681e-12
-4.75748e-11
-1.08292e-11
5.77856e-11
-4.2503e-12
-1.51613e-11
-4.76006e-11
5.9888e-11
-7.05526e-12
-1.60433e-11
5.94808e-11
-7.6358e-12
5.39192e-11
-1.88845e-11
-3.96082e-11
4.88677e-12
4.51872e-11
-2.31279e-11
-2.98559e-11
-4.72789e-12
1.24305e-11
-2.96913e-12
5.73245e-12
-5.07288e-12
1.65292e-11
-4.7597e-12
6.00768e-12
2.07456e-11
-5.30358e-12
5.50239e-12
2.18624e-11
-4.10336e-12
4.57025e-12
2.2017e-11
-3.49778e-12
2.90502e-12
2.03724e-11
-2.16718e-12
2.10997e-12
1.73262e-11
-2.03958e-12
9.25557e-13
1.40876e-11
-1.20602e-12
5.62869e-13
1.04312e-11
-1.22022e-12
8.61088e-14
5.72819e-12
-4.50268e-13
-1.11308e-12
1.11932e-11
8.96832e-14
-1.83741e-12
2.42318e-11
-2.21752e-11
-1.33301e-12
-1.75529e-12
1.72849e-11
-1.72689e-11
-9.90008e-14
-9.72148e-13
1.15558e-11
-1.13364e-11
-1.00315e-12
-9.70093e-13
5.55409e-12
-5.44012e-12
-1.16324e-13
-8.71407e-12
8.80628e-12
3.69262e-12
-4.75454e-12
-5.82386e-12
1.32284e-12
4.1102e-12
-5.28512e-12
1.40993e-11
-1.37142e-11
-9.24736e-13
-4.24861e-12
5.69397e-12
-5.55745e-12
-1.17357e-12
-7.49664e-12
7.47332e-12
9.64934e-12
-1.38741e-11
-1.59491e-11
5.06913e-12
1.02498e-11
-1.28419e-11
-9.34741e-12
-3.86028e-12
1.00989e-11
-1.01814e-11
-3.41446e-12
-2.809e-12
3.56204e-12
-4.49798e-12
4.52086e-12
-3.03515e-11
2.01475e-11
-3.14816e-11
1.04373e-11
2.10745e-11
-2.83936e-11
5.4096e-12
-6.35767e-12
-2.1413e-12
-1.87069e-11
2.0155e-12
-3.41209e-12
-8.29081e-12
-1.34407e-11
3.87782e-13
-9.71991e-13
-4.68238e-12
-5.17856e-13
2.08555e-13
-4.00352e-11
2.6904e-11
-3.84375e-11
1.26619e-11
2.51431e-11
-3.89389e-11
-2.62162e-12
4.95685e-13
-2.67871e-11
-3.92703e-12
-1.1566e-11
-2.21959e-11
-3.18386e-12
-4.62592e-12
-2.11699e-11
-5.35242e-11
4.41687e-11
4.41426e-09
-7.80005e-10
-7.60283e-10
1.60067e-11
2.89532e-10
2.93681e-10
2.21335e-11
4.88972e-09
-7.75281e-10
-9.61241e-10
-2.45717e-11
3.44566e-10
3.50319e-10
-1.34784e-11
5.33425e-09
-8.56433e-10
3.72907e-10
3.48812e-10
-2.89219e-11
-1.29109e-11
-1.08976e-09
5.63749e-09
-8.91069e-10
7.00342e-10
-1.08356e-09
5.97495e-09
-9.41007e-10
6.43323e-10
-9.95336e-10
6.25715e-09
-8.96175e-10
5.80666e-10
-9.71477e-10