/*--------------------------------*- C++ -*----------------------------------*\
| =========                 |                                                 |
| \\      /  F ield         | OpenFOAM: The Open Source CFD Toolbox           |
|  \\    /   O peration     | Version:  5.0                                   |
|   \\  /    A nd           | Web:      www.OpenFOAM.org                      |
|    \\/     M anipulation  |                                                 |
\*---------------------------------------------------------------------------*/
FoamFile
{
    version     2.0;
    format      ascii;
    class       volVectorField;
    location    "60";
    object      U;
}
// * * * * * * * * * * * * * * * * * * * * * * * * * * * * * * * * * * * * * //

dimensions      [0 1 -1 0 0 0 0];

internalField   nonuniform List<vector> 
36178
(
(-5.23641e-05 -0.000381438 0.000618872)
(-3.54591e-05 -0.000335054 0.000602825)
(-2.92441e-05 -0.000279777 0.000589489)
(-1.62995e-05 -0.000220158 0.000566448)
(-1.70067e-05 -0.000215127 0.000511442)
(-3.46113e-05 -0.000282381 0.000562901)
(-4.65709e-05 -0.000345395 0.000585664)
(-6.20892e-05 -0.000393296 0.00061003)
(-5.876e-05 -0.000436335 0.000634049)
(-4.40876e-05 -0.000405082 0.000624398)
(-3.82854e-05 -0.00036336 0.000609569)
(-2.73837e-05 -0.000316974 0.00059587)
(-2.5582e-05 -0.00026193 0.000586763)
(-1.4842e-05 -0.000207657 0.000575663)
(-3.70432e-05 -0.000418425 0.000619522)
(-2.61118e-05 -0.000380223 0.000601729)
(-2.51503e-05 -0.000336435 0.00059119)
(-1.86634e-05 -0.000289556 0.000578004)
(-2.15151e-05 -0.000234463 0.000569797)
(-1.51879e-05 -0.000179179 0.000559556)
(-0.0003792 -9.43665e-05 0.00512369)
(-0.000409268 -0.000443738 0.00523006)
(-0.000425102 -0.000862712 0.00526096)
(-0.000423756 -0.00121203 0.00536752)
(-0.000406523 -0.00160395 0.00538597)
(-0.000388445 -0.00192572 0.00548489)
(-0.000359998 -0.00226816 0.00548493)
(-0.00034634 -0.00253947 0.0055737)
(-0.000317954 -0.0028076 0.00555639)
(-0.000322991 -0.00300479 0.00561521)
(-0.000321665 -0.00318412 0.00557223)
(-0.00036192 -0.00330422 0.00559129)
(-0.000391495 -0.00339984 0.00550794)
(-0.000473311 -0.0034564 0.00547503)
(-0.00053813 -0.00349442 0.00534066)
(-0.000647023 -0.00352036 0.00526437)
(-0.000727872 -0.00353183 0.00510702)
(-0.000826797 -0.0035499 0.00501432)
(-0.000105222 -0.000428929 0.000569039)
(-8.55426e-05 -0.000419014 0.000592797)
(-6.7622e-05 -0.000458313 0.000632295)
(-5.41045e-05 -0.000457864 0.000621293)
(-3.75151e-05 -0.00045956 0.000617161)
(-2.96158e-05 -0.000445101 0.000614947)
(-1.50651e-05 -0.000423415 0.000605373)
(-1.25764e-05 -0.000393104 0.000594016)
(-6.48669e-06 -0.000352045 0.000574239)
(-1.1198e-05 -0.000304863 0.000563697)
(-8.81007e-06 -0.000257002 0.000549377)
(-1.61838e-05 -0.000200699 0.000542467)
(-1.57127e-05 -0.000145198 0.000529428)
(-1.90229e-05 -8.40622e-05 0.000528356)
(-1.10695e-05 -2.92107e-05 0.000529295)
(-0.00052805 0.000177909 0.00488846)
(-0.000532664 -0.000188717 0.0050162)
(-0.000524622 -0.000582884 0.00505864)
(-0.000488344 -0.000951531 0.00517955)
(-0.000440463 -0.00132528 0.00520203)
(-0.000389532 -0.00167125 0.0052971)
(-0.000327793 -0.00200479 0.00529141)
(-0.000280462 -0.0023135 0.00536946)
(-0.000221662 -0.00257854 0.00534856)
(-0.000199656 -0.00281303 0.00539518)
(-0.000174293 -0.00298988 0.00533948)
(-0.000200934 -0.0031323 0.00533797)
(-0.000220729 -0.00321725 0.00523384)
(-0.000303214 -0.00327952 0.00516598)
(-0.000379875 -0.00329861 0.00499851)
(-0.000497682 -0.0033281 0.0048833)
(-0.000585282 -0.00333115 0.00469365)
(-0.00069685 -0.00334381 0.00457879)
(-9.82604e-05 -0.000269945 0.000335528)
(-9.57424e-05 -0.000277149 0.000345202)
(-8.57492e-05 -0.000278581 0.000352183)
(-8.19505e-05 -0.000293787 0.000365718)
(-7.09374e-05 -0.000302743 0.000386462)
(-5.75082e-05 -0.00030996 0.000402631)
(-5.33466e-05 -0.000335681 0.000433499)
(-3.23487e-05 -0.000375785 0.000488208)
(-8.47744e-06 -0.00040497 0.000522456)
(1.00015e-05 -0.00041621 0.000540615)
(2.8489e-05 -0.000407229 0.000543576)
(3.2695e-05 -0.000391854 0.000541638)
(3.77506e-05 -0.000358268 0.000533744)
(3.33356e-05 -0.000323159 0.000537426)
(2.85519e-05 -0.000251614 0.000496152)
(1.02971e-05 -0.000207191 0.00047168)
(-1.26367e-06 -0.00016632 0.000490234)
(-1.82835e-05 -0.000110641 0.000479981)
(-2.39409e-05 -5.22089e-05 0.000439522)
(-3.68638e-05 1.54143e-07 0.000435509)
(-4.4661e-05 5.4808e-05 0.000451659)
(-4.56882e-05 0.000103952 0.00043675)
(-3.26989e-05 0.000149692 0.000428227)
(-0.00129401 0.00255071 0.00573463)
(-0.00159129 0.00215797 0.00618632)
(-0.00171946 0.00162949 0.0065605)
(-0.00174634 0.00102026 0.00686522)
(-0.00160431 0.000350574 0.00704014)
(-0.00126649 -0.000410525 0.007077)
(-0.000770045 -0.00122798 0.00707022)
(-0.000287908 -0.00197926 0.00697467)
(4.29471e-05 -0.00262007 0.00677282)
(0.00012636 -0.00317858 0.00652224)
(0.000295239 -0.00380441 0.00651456)
(0.000157172 -0.00414324 0.00626847)
(1.80882e-05 -0.00428176 0.00595496)
(-0.000212661 -0.00431672 0.00562928)
(-0.000417484 -0.00429588 0.00524485)
(-0.00064 -0.00423877 0.00490794)
(-0.000846671 -0.00413974 0.00456007)
(-0.00102505 -0.00400544 0.00424449)
(-0.00120834 -0.00387234 0.0039702)
(-0.00130672 -0.00373566 0.00375285)
(-0.00139113 -0.00357481 0.00353767)
(-0.000132836 -0.000297504 0.000290169)
(-0.000167778 -0.000347738 0.000313842)
(-0.000178646 -0.0004003 0.000365183)
(-0.00017841 -0.000441527 0.000398753)
(-0.000169312 -0.000477291 0.000441097)
(-0.000157012 -0.000523019 0.000489623)
(-0.000137403 -0.000575371 0.000569713)
(-8.45942e-05 -0.000411973 0.000418727)
(-4.74474e-05 -0.000273584 0.000281629)
(-1.4483e-05 -0.000303923 0.000325296)
(4.92464e-06 -0.000362757 0.000384799)
(4.01845e-05 -0.00042087 0.000465817)
(8.31394e-05 -0.000458901 0.000534)
(0.00011871 -0.000425113 0.000594677)
(0.000106656 -0.000325447 0.000407437)
(4.88269e-05 -0.000200611 0.000268896)
(0.000102173 -0.000213138 0.000319295)
(0.000115881 -0.000195039 0.00034477)
(0.000120689 -0.000194678 0.000403773)
(8.82933e-05 -0.000134091 0.000257676)
(1.86371e-05 -6.04083e-05 0.000175382)
(4.63013e-05 -4.61089e-05 0.000198752)
(3.82875e-05 -1.98559e-05 0.000221564)
(1.94541e-05 1.00529e-05 0.000216335)
(9.00023e-06 3.19468e-05 0.000272245)
(8.48239e-07 2.39616e-05 0.000161141)
(-2.5536e-05 4.41704e-05 0.000107823)
(-2.1341e-05 5.54483e-05 0.000107172)
(-3.10999e-05 7.00858e-05 0.000100668)
(-3.66377e-05 7.95143e-05 8.50456e-05)
(-3.17189e-05 7.72194e-05 7.78181e-05)
(-6.56539e-05 0.000120093 8.75846e-05)
(-5.41485e-05 0.000120204 0.000112977)
(-4.91612e-05 9.78995e-05 0.000126473)
(-3.72012e-05 8.09138e-05 0.000145194)
(-1.85676e-05 6.09927e-05 0.000149686)
(-2.97107e-06 2.94665e-05 0.000155647)
(-1.88314e-06 1.83849e-05 0.000219)
(-2.11437e-05 5.09318e-05 0.000236516)
(-4.24609e-05 7.44969e-05 0.000230278)
(-5.71293e-05 0.000102044 0.000213411)
(-6.84564e-05 0.000127487 0.000181978)
(-7.31101e-05 0.000136912 0.000168647)
(-8.2589e-05 0.000142225 0.000168339)
(-6.70671e-05 0.000124166 0.00015046)
(-6.05505e-05 0.000109809 0.000132488)
(-0.000109495 0.000166929 0.000181198)
(-0.000100115 0.000183178 0.000199952)
(-0.000114412 0.000191291 0.000234385)
(-8.6846e-05 0.000130742 0.000227392)
(-6.98586e-05 0.000136153 0.000243961)
(-4.48528e-05 7.93198e-05 0.000166705)
(-4.86818e-05 7.98406e-05 0.00017065)
(-3.54762e-05 6.06412e-05 0.000195274)
(-3.03386e-05 5.42351e-05 0.00020784)
(-1.68137e-05 3.73141e-05 0.000226401)
(-2.35934e-06 9.17558e-06 0.000230039)
(8.30888e-06 -1.92601e-05 0.000215766)
(1.16109e-05 -5.19551e-05 0.000206355)
(1.90219e-05 -1.51003e-06 0.000221654)
(3.27121e-05 -3.10897e-05 0.000225137)
(4.30902e-05 -6.22946e-05 0.000203266)
(1.58516e-05 -7.75829e-05 0.000183186)
(8.12794e-05 -0.000163933 0.000296056)
(8.72881e-05 -0.000141276 0.00030529)
(0.000117621 -0.000247106 0.000434885)
(0.000107587 -0.000240392 0.000380067)
(0.000108129 -0.000261079 0.000377696)
(5.71736e-05 -0.00022992 0.000312988)
(0.000109526 -0.000379081 0.000528617)
(9.6348e-05 -0.000391891 0.0004819)
(0.00012989 -0.00056531 0.000731189)
(7.07627e-05 -0.000504469 0.000603872)
(4.76704e-05 -0.000509427 0.000606179)
(2.73214e-06 -0.000481403 0.000537198)
(-2.81202e-05 -0.000445598 0.000482419)
(-5.77096e-05 -0.000400797 0.000427912)
(-7.56965e-05 -0.000350348 0.000369881)
(-7.21494e-05 -0.000305953 0.000327066)
(-0.000124956 -0.000431702 0.000453564)
(-0.000133699 -0.000386337 0.000395426)
(-0.000145104 -0.000352408 0.000361436)
(-0.000149441 -0.000328625 0.000332187)
(-0.000148541 -0.000300324 0.000305618)
(-0.000142464 -0.000268909 0.000276911)
(-9.00312e-05 -0.000219631 0.000233367)
(-9.4785e-05 -0.000238761 0.000251753)
(-9.46083e-05 -0.000256326 0.000269493)
(-9.19224e-05 -0.000270243 0.000287104)
(-8.12354e-05 -0.00028591 0.000302672)
(-0.000149108 -0.000397755 0.000381761)
(-0.000134566 -0.000391765 0.00041735)
(-0.000119602 -0.000447406 0.000482044)
(-0.000106697 -0.000482565 0.000523007)
(-7.3686e-05 -0.000514287 0.000564422)
(-4.91663e-05 -0.000544152 0.000604133)
(-2.50864e-06 -0.000563758 0.000655073)
(1.85054e-05 -0.000582508 0.000682977)
(7.39198e-05 -0.000603621 0.00077156)
(7.58266e-05 -0.000431277 0.000551517)
(3.19572e-05 -0.00025718 0.000317058)
(8.0534e-05 -0.000303041 0.000395524)
(9.15832e-05 -0.000322198 0.000434556)
(9.35808e-05 -0.000288852 0.000421852)
(9.04965e-05 -0.000282957 0.00047492)
(6.57312e-05 -0.000186765 0.000304886)
(1.45865e-05 -8.41892e-05 0.000197135)
(2.50812e-05 -7.20164e-05 0.000208444)
(4.77136e-05 -0.000148019 0.000315452)
(5.73264e-05 -0.000188752 0.000313213)
(5.90885e-05 -0.000298455 0.000465917)
(4.08447e-05 -0.000272535 0.000494819)
(4.02337e-05 -0.000230709 0.000527533)
(1.78047e-05 -0.000135864 0.000330467)
(-1.18964e-05 -4.73812e-05 0.000202424)
(-4.29293e-07 -3.37429e-05 0.00020916)
(-1.01075e-05 -1.18567e-05 0.000207042)
(-5.47864e-06 -1.18926e-06 0.000194086)
(-2.95572e-05 1.60812e-05 0.000286741)
(-1.25663e-05 1.1714e-06 0.000287646)
(-7.74993e-06 -4.29997e-05 0.000308247)
(7.69577e-06 -7.85704e-05 0.000311583)
(1.58889e-05 -0.00012149 0.000317068)
(2.3084e-05 -0.000207506 0.000766588)
(3.1406e-05 -9.55571e-05 0.000794874)
(6.48793e-05 -0.00020005 0.000770237)
(3.68051e-05 -0.000115801 0.000342168)
(9.91433e-05 -0.0002846 0.000768167)
(0.000120959 -0.000338769 0.000741377)
(0.000151277 -0.000232263 0.000737234)
(0.000142437 -0.000293169 0.000690216)
(7.44532e-05 -0.000176635 0.000328877)
(0.000164183 -0.000182165 0.000717227)
(0.000165922 -0.000238702 0.000651996)
(0.000180503 -0.000110455 0.000663015)
(4.52924e-05 -2.00795e-05 0.000182933)
(3.24757e-05 1.96883e-06 0.000201567)
(3.08096e-05 2.79349e-05 0.000261471)
(1.93883e-05 2.1622e-05 0.000161562)
(-1.76696e-05 4.53609e-05 0.000110541)
(-1.42364e-05 5.68247e-05 0.000119554)
(-2.20652e-05 8.01147e-05 0.00011722)
(-2.88255e-05 0.00010568 0.000110217)
(-3.89285e-05 0.00012624 9.31691e-05)
(-4.35164e-05 0.000137441 7.40733e-05)
(-5.01996e-05 0.000137713 6.37719e-05)
(-3.90933e-05 0.000118821 5.93735e-05)
(-4.46155e-05 0.00011497 4.95402e-05)
(-3.63164e-05 9.72624e-05 4.97923e-05)
(-7.68568e-05 0.000144692 6.92339e-05)
(-7.39121e-05 0.000152868 8.02929e-05)
(-8.51647e-05 0.000158374 8.06888e-05)
(-8.56743e-05 0.000175233 9.89329e-05)
(-0.00012109 0.000196228 0.000197187)
(-0.000112731 0.00020124 0.00015301)
(-9.93534e-05 0.000187979 0.000139053)
(-8.84468e-05 0.000152951 0.00012051)
(-6.11082e-05 0.000127092 0.000120056)
(-0.000114484 0.000184022 0.000162373)
(-0.00011634 0.00021315 0.000190864)
(-0.000145164 0.000256706 0.000300246)
(-0.00125681 0.0026014 0.00530492)
(-0.00157216 0.00257785 0.00574551)
(-0.00185965 0.0023654 0.00616479)
(-0.00197778 0.00204382 0.00646045)
(-0.00206348 0.00163826 0.00681706)
(-0.00199355 0.00116863 0.00692638)
(-0.00172191 0.000572792 0.00679826)
(-0.00112305 -0.000149348 0.00669483)
(-0.00045773 -0.000902206 0.00652217)
(6.69692e-05 -0.00160369 0.00623782)
(0.000327079 -0.0022687 0.00590316)
(0.000564874 -0.0029837 0.00577109)
(0.00046756 -0.0033885 0.00543804)
(0.000346874 -0.00358353 0.00505865)
(0.00011541 -0.00361179 0.00463513)
(-0.000109005 -0.00362947 0.00421436)
(-0.000364759 -0.00353747 0.00380335)
(-0.000559874 -0.00341042 0.00343936)
(-0.000702939 -0.00320465 0.00306825)
(-0.0008772 -0.00306694 0.00285819)
(-0.000942037 -0.00279986 0.00258109)
(-0.000967387 -0.0025564 0.00235325)
(-0.0009534 -0.00227966 0.00214696)
(-0.000230973 -0.000447343 0.000401028)
(-0.000163944 -0.000326071 0.000294414)
(-0.000105459 -0.000231487 0.000222248)
(-0.000103504 -0.000265264 0.000256307)
(-0.000103216 -0.000302092 0.000285975)
(-9.00327e-05 -0.000333249 0.000318579)
(-0.000100493 -0.000388498 0.000361838)
(-8.05832e-05 -0.000448522 0.000434834)
(-4.85827e-05 -0.000523275 0.000484115)
(9.9228e-07 -0.00061851 0.000618753)
(3.21593e-05 -0.00045275 0.000449346)
(1.81521e-05 -0.000298907 0.0003034)
(7.14955e-05 -0.000350432 0.000404229)
(0.000114248 -0.000365603 0.000450425)
(0.000147981 -0.000410486 0.000568328)
(0.000130549 -0.000267346 0.000390663)
(7.46245e-05 -0.000167432 0.000269537)
(0.000107248 -0.000159411 0.000298053)
(0.000122695 -0.000152187 0.000354712)
(9.01858e-05 -9.86815e-05 0.000242484)
(1.79205e-05 -3.95419e-05 0.000159546)
(4.07885e-05 7.23001e-07 0.000166135)
(4.05373e-05 2.05158e-05 0.00021205)
(3.71485e-05 2.08877e-05 0.000145942)
(-6.35037e-06 4.16637e-05 0.000102332)
(-2.10261e-06 5.52569e-05 0.000118447)
(-7.35666e-06 7.66294e-05 0.000125722)
(-1.37401e-05 0.000103232 0.000129302)
(-2.54116e-05 0.000123668 0.000119476)
(-3.12404e-05 0.000143717 0.000104887)
(-3.92367e-05 0.000161056 8.82707e-05)
(-4.02843e-05 0.000169898 6.50325e-05)
(-4.35148e-05 0.000176157 4.92426e-05)
(-4.37264e-05 0.000179846 4.03699e-05)
(-4.58547e-05 0.000169283 4.1458e-05)
(-4.5825e-05 0.000146199 4.41763e-05)
(-2.50888e-05 0.000107176 3.79441e-05)
(-7.22958e-05 0.00015361 4.40027e-05)
(-7.65743e-05 0.000175744 8.07406e-05)
(-0.000114448 0.000208631 0.000142961)
(-8.59119e-05 0.00016986 0.000101055)
(-5.56401e-05 0.00013396 0.00010198)
(-0.000109897 0.000187796 0.00012979)
(-0.000115523 0.000215511 0.000170362)
(-0.00015423 0.000268794 0.000269242)
(-0.000106202 0.000225084 0.00020015)
(-6.06571e-05 0.000193159 0.000192463)
(-9.80553e-05 0.000311173 0.00028029)
(-7.65229e-05 0.000387692 0.000349467)
(-0.0018673 0.00105035 0.00937997)
(-0.00221621 0.000800288 0.0100118)
(-0.0024135 0.000446458 0.0104902)
(-0.00248177 1.87877e-05 0.010833)
(-0.00231678 -0.000456057 0.010997)
(-0.00198914 -0.000973843 0.0109929)
(-0.00151196 -0.00155144 0.0108668)
(-0.00101582 -0.00218458 0.010639)
(-0.000572132 -0.00286029 0.0103171)
(-0.000236911 -0.00358723 0.009931)
(-4.77628e-05 -0.00436171 0.00926645)
(-5.65767e-05 -0.00499286 0.00858806)
(-0.000357202 -0.00541649 0.00771687)
(-0.000875967 -0.00563611 0.00682405)
(-0.00146655 -0.00567007 0.00598115)
(-0.00160194 -0.00548741 0.00548809)
(-0.00185963 -0.00532147 0.0052479)
(-0.00197357 -0.00512187 0.0050289)
(-0.000228161 -0.000425258 0.000375722)
(-0.000171794 -0.000332841 0.00029186)
(-0.000124175 -0.000248766 0.000228338)
(-0.000129835 -0.000284607 0.000264382)
(-0.000138658 -0.000345644 0.000287724)
(-0.000171592 -0.000425663 0.000343038)
(-0.00017481 -0.000515729 0.000408603)
(-0.000165735 -0.000591163 0.000490559)
(-9.77027e-05 -0.000431096 0.000378835)
(-5.49369e-05 -0.000295253 0.000263892)
(-3.76459e-05 -0.000360737 0.000313475)
(3.96585e-06 -0.000426788 0.000390088)
(5.12767e-05 -0.000473325 0.000477152)
(6.58428e-05 -0.000348905 0.000357949)
(4.88064e-05 -0.000238118 0.000252564)
(8.81905e-05 -0.000279474 0.000321718)
(0.000138921 -0.000287997 0.000422887)
(0.000117915 -0.000211992 0.000292651)
(5.18145e-05 -0.000134113 0.000202407)
(9.8139e-05 -0.000124664 0.000241762)
(0.000105488 -0.000106055 0.000310022)
(8.65502e-05 -7.26814e-05 0.000198871)
(1.96802e-05 -2.16705e-05 0.00014461)
(3.9385e-05 1.77734e-05 0.000148405)
(3.34351e-05 4.75126e-05 0.000196654)
(3.5777e-05 3.63458e-05 0.000126721)
(-6.2744e-06 5.12815e-05 9.70518e-05)
(4.1175e-06 7.13773e-05 0.000118475)
(-2.84662e-06 0.000102335 0.000134743)
(-1.31779e-05 0.000124133 0.000133824)
(-1.82398e-05 0.000148442 0.000128114)
(-3.0484e-05 0.000170516 0.000117781)
(-3.46326e-05 0.000186707 0.000100416)
(-4.1506e-05 0.00020241 8.37258e-05)
(-3.97927e-05 0.000212154 6.28497e-05)
(-3.85929e-05 0.000219495 4.72551e-05)
(-3.57687e-05 0.000224035 3.63728e-05)
(-3.55852e-05 0.00021364 3.3059e-05)
(-3.21338e-05 0.000194039 3.28258e-05)
(-2.56665e-05 0.000155021 2.9819e-05)
(-6.46605e-05 0.000196657 3.06096e-05)
(-9.54234e-05 0.000270902 0.000108439)
(-6.98018e-05 0.000209161 7.40435e-05)
(-3.86314e-05 0.000155886 7.5241e-05)
(-9.05365e-05 0.000210245 0.000106422)
(-9.73848e-05 0.000244092 0.00013727)
(-0.000114421 0.000224038 0.00012502)
(-0.000155454 0.000311615 0.000235388)
(-0.000113903 0.000236523 0.000172204)
(-6.52222e-05 0.000182437 0.000159527)
(-0.000113049 0.000258477 0.00022741)
(-0.000115711 0.000329722 0.000265513)
(-0.000135044 0.000310943 0.00027759)
(-0.000155402 -0.00038433 0.000439296)
(-0.000149344 -0.000401357 0.00046206)
(-0.000134338 -0.00041562 0.000483684)
(-0.000122919 -0.000435318 0.000508315)
(-0.000100138 -0.000458016 0.000533759)
(-8.67365e-05 -0.000498835 0.000593576)
(-2.82393e-05 -0.00044971 0.000548789)
(-1.42999e-05 -0.000264398 0.000323214)
(1.02181e-05 -0.00030935 0.0003815)
(3.55483e-05 -0.000357861 0.000452244)
(5.21832e-05 -0.000373275 0.000478134)
(6.66381e-05 -0.000370651 0.000493492)
(6.4101e-05 -0.000317792 0.000474948)
(0.000155668 -0.00100247 0.00161974)
(0.000161315 -0.00110734 0.00163905)
(0.000127747 -0.00113506 0.00159415)
(0.00010835 -0.00111537 0.00151114)
(4.27495e-05 -0.0010275 0.00132592)
(-1.31576e-05 -0.000910161 0.00116718)
(2.5734e-05 -0.000452589 0.000544607)
(1.85392e-05 -0.00183591 0.0024645)
(-0.000114787 -0.00177107 0.00230148)
(-5.01471e-05 -0.000663077 0.000790368)
(-7.84417e-05 -0.000635778 0.000711547)
(-0.000116238 -0.000611937 0.000675512)
(-0.000132982 -0.000587334 0.000638704)
(-0.000160916 -0.000563574 0.000604717)
(-0.000167494 -0.000538573 0.000562387)
(-0.000201706 -0.00052587 0.000564538)
(-0.000453688 -0.0014742 0.00163692)
(-0.000156888 -0.000338374 0.000328759)
(-0.000165658 -0.000361444 0.000349117)
(-0.000164792 -0.000378997 0.000366249)
(-0.00016438 -0.000391117 0.00038358)
(-0.000229315 -0.000443467 0.000392151)
(-0.000181163 -0.00036005 0.000315767)
(-0.000136629 -0.000271412 0.000251258)
(-0.000146915 -0.000341759 0.000282511)
(-0.000192966 -0.000437295 0.000333316)
(-0.000210731 -0.000540087 0.000412186)
(-0.000141817 -0.000414605 0.000325546)
(-9.3587e-05 -0.000293778 0.000233659)
(-7.49796e-05 -0.000341667 0.000276162)
(-7.98827e-05 -0.000407469 0.000327757)
(-5.05426e-05 -0.000512283 0.000416531)
(-8.64234e-06 -0.000401455 0.000344592)
(7.76318e-07 -0.000262237 0.000222661)
(3.63024e-05 -0.000320825 0.000290361)
(7.63942e-05 -0.00039089 0.000370867)
(0.0001353 -0.000446512 0.000494059)
(0.000141346 -0.000341674 0.000382591)
(7.99351e-05 -0.000224395 0.000269117)
(0.000146846 -0.000227948 0.000386542)
(0.000123072 -0.000137018 0.00026238)
(6.40519e-05 -8.9671e-05 0.00018759)
(9.65661e-05 -6.55007e-05 0.00024889)
(7.89518e-05 -3.81611e-05 0.000164126)
(1.80212e-05 -9.07057e-06 0.000119377)
(1.65921e-05 3.76682e-05 0.000118686)
(3.42215e-05 6.89487e-05 0.000168077)
(3.59581e-05 5.38157e-05 0.000113314)
(-4.29888e-06 5.3401e-05 8.51885e-05)
(5.70926e-06 8.05039e-05 0.000112512)
(-2.23601e-06 0.000113961 0.00012748)
(-7.11279e-06 0.000143651 0.000131727)
(-1.8956e-05 0.000165768 0.000136679)
(-2.83388e-05 0.000198312 0.000122131)
(-3.93959e-05 0.000223606 0.000120199)
(-4.07653e-05 0.000237962 0.00010387)
(-4.42607e-05 0.000250829 8.67234e-05)
(-3.93387e-05 0.000259343 6.45704e-05)
(-3.09691e-05 0.000262215 4.23803e-05)
(-2.51766e-05 0.000267561 2.85919e-05)
(-2.61606e-05 0.000262299 3.30078e-05)
(-2.33431e-05 0.000238282 3.50318e-05)
(-2.51812e-05 0.000196472 3.18042e-05)
(-4.54579e-06 0.000140571 2.12887e-05)
(-4.52468e-05 0.000197516 2.88816e-05)
(-4.73902e-05 0.000222916 5.65244e-05)
(-0.000106129 0.000455502 0.000166245)
(-0.000136208 0.000553506 0.000190903)
(-0.000130581 0.000646066 0.000255206)
(-0.00014135 0.000693779 0.00028788)
(-0.000135766 0.00070683 0.000309214)
(-0.00013167 0.000697603 0.000353591)
(-0.000120719 0.000667891 0.000414215)
(-0.000121528 0.000635209 0.000475978)
(-0.000102905 0.000592061 0.000517914)
(-9.60364e-05 0.000547641 0.000552528)
(-6.78278e-05 0.00048451 0.000557008)
(-5.94909e-05 0.00041329 0.000566549)
(-1.89339e-05 0.000345942 0.000556774)
(3.93402e-06 0.0002713 0.00051512)
(5.31351e-05 0.000205623 0.00042565)
(6.59383e-05 0.000130838 0.000360448)
(3.14001e-05 7.09179e-05 0.000150788)
(4.07404e-05 0.000245213 0.000381314)
(2.39464e-05 0.00011718 0.000122937)
(-8.02481e-06 9.58517e-05 9.15495e-05)
(-1.204e-06 0.000128527 0.000119443)
(-1.21999e-05 0.000161317 0.000128938)
(-2.72631e-05 0.000197437 0.000125506)
(-4.55985e-05 0.000233011 0.000154295)
(-1.90361e-05 0.00015604 7.52252e-05)
(-2.13368e-05 0.000125741 6.27033e-05)
(-1.513e-05 0.000136553 6.57081e-05)
(-1.33425e-05 0.000140514 6.43814e-05)
(-1.19383e-05 0.00014084 5.80262e-05)
(-8.77383e-06 0.000136946 4.82047e-05)
(-2.61716e-07 0.000119273 3.15968e-05)
(-2.71048e-05 0.000213238 1.90021e-05)
(-1.63579e-05 0.000214136 3.89217e-05)
(-2.30522e-05 0.000203065 4.81432e-05)
(-2.53205e-05 0.000199678 6.51617e-05)
(-2.41992e-05 0.000195286 7.71696e-05)
(-2.35259e-05 0.000186048 8.44173e-05)
(-1.58676e-05 0.000160269 9.01632e-05)
(-4.01831e-05 0.000358764 0.000272617)
(-7.61947e-05 0.00049139 0.000272294)
(-3.05317e-05 0.000177259 5.90503e-05)
(-2.8663e-05 0.0002004 6.9627e-05)
(-2.54153e-05 0.000201575 7.1711e-05)
(-2.24865e-05 0.000195699 6.58292e-05)
(-1.72671e-05 0.000184036 5.48192e-05)
(-7.78851e-06 0.000155221 3.84972e-05)
(-2.2223e-05 0.000238758 2.89825e-05)
(-2.76581e-05 0.000356385 6.65212e-05)
(-1.38459e-05 0.000333055 2.02508e-05)
(-1.40639e-05 0.00030609 2.57327e-05)
(-1.26432e-05 0.000259831 2.0327e-05)
(-4.69325e-06 0.000194021 1.60305e-05)
(-2.86183e-05 0.000250808 2.69406e-05)
(-3.74294e-05 0.000233019 2.72512e-05)
(-4.93427e-05 0.000294246 7.86099e-05)
(-3.12117e-05 0.000214494 6.16623e-05)
(-7.34043e-05 0.00026003 9.38105e-05)
(-8.50896e-05 0.000235539 0.000101219)
(-0.000111344 0.000298014 0.000188027)
(-7.09137e-05 0.000220384 0.000153233)
(-0.000120638 0.000278551 0.000228319)
(-0.000123127 0.0002669 0.000229815)
(-0.000145522 0.000333535 0.000344891)
(-0.000101638 0.000252586 0.000268371)
(-4.56576e-05 0.000173514 0.000208331)
(-9.55717e-05 0.000246823 0.000275449)
(-9.72958e-05 0.00032488 0.000320173)
(-0.000171754 -0.0003466 0.000311136)
(-0.000137591 -0.000280284 0.000267052)
(-0.000155468 -0.000363406 0.000299654)
(-0.000210534 -0.000474629 0.000363145)
(-0.000155516 -0.000392517 0.000302917)
(-0.000116019 -0.000293363 0.000225753)
(-0.000104323 -0.00034523 0.00027125)
(-0.000123903 -0.000449839 0.000307323)
(-0.0001093 -0.00057894 0.000415659)
(-5.14724e-05 -0.000439011 0.000329481)
(-2.5239e-05 -0.000297957 0.000220785)
(2.87915e-06 -0.000369062 0.000281575)
(3.93677e-05 -0.000468402 0.000387139)
(6.57574e-05 -0.000357323 0.000295782)
(4.47031e-05 -0.000239698 0.00021494)
(9.15766e-05 -0.00027491 0.000279966)
(0.000148758 -0.000335499 0.000424688)
(0.000144237 -0.000217639 0.000331251)
(7.92973e-05 -0.000135592 0.000226083)
(0.000143164 -0.000152394 0.000356208)
(0.000120863 -7.51855e-05 0.000253399)
(5.11277e-05 -3.30935e-05 0.000168698)
(7.79575e-05 -1.56479e-05 0.000238453)
(6.84312e-05 2.99383e-05 0.000164523)
(5.94601e-05 3.79367e-05 0.000166966)
(1.04581e-05 4.08379e-05 9.67449e-05)
(2.17631e-05 7.91015e-05 0.000123535)
(1.90657e-05 0.000121713 0.000176579)
(2.35559e-05 0.000130097 0.000136468)
(-5.95015e-06 9.13201e-05 7.93131e-05)
(-2.81219e-06 0.000127947 0.000101126)
(-9.53235e-06 0.000169074 0.000117825)
(-2.98204e-05 0.000213832 0.000128231)
(-1.26316e-05 0.000148027 6.7562e-05)
(-2.39493e-05 0.000123321 5.23951e-05)
(-2.34711e-05 0.000145708 5.21298e-05)
(-3.69756e-05 0.000207407 4.63669e-05)
(-3.99381e-05 0.000225941 5.01364e-05)
(-4.13272e-05 0.000235774 6.16495e-05)
(-3.79532e-05 0.000231037 6.99607e-05)
(-3.36704e-05 0.000220257 6.55273e-05)
(-2.46401e-05 0.000203454 5.63473e-05)
(-1.76183e-05 0.000179978 4.22645e-05)
(2.77873e-06 0.000146792 2.48048e-05)
(-2.17614e-05 0.000246038 1.51414e-05)
(-1.28398e-05 0.000270437 5.00811e-05)
(-4.93175e-05 0.000498603 0.000139591)
(-7.57228e-05 0.000544061 0.000176688)
(-8.8482e-05 0.000593208 0.000245044)
(-0.000110467 0.000623629 0.000285938)
(-0.00011409 0.000645163 0.000307184)
(-0.000114242 0.000654175 0.000296227)
(-0.000106861 0.000619185 0.000273326)
(-0.000101289 0.000556758 0.000261397)
(-6.19392e-05 0.00046782 0.000233256)
(-3.00054e-05 0.000170021 4.3008e-05)
(-2.92774e-05 0.000201894 3.23398e-05)
(-3.68138e-05 0.000230209 3.03859e-05)
(-3.68562e-05 0.000243856 3.30789e-05)
(-3.8033e-05 0.000252519 4.19485e-05)
(-3.78103e-05 0.000250749 4.73354e-05)
(-3.47062e-05 0.000242483 4.50755e-05)
(-2.61777e-05 0.000224333 4.03263e-05)
(-1.85219e-05 0.000202521 3.32019e-05)
(-6.82091e-06 0.000170677 2.00929e-05)
(-1.91349e-05 0.000255012 1.40857e-05)
(-1.03563e-05 0.000372302 3.36997e-05)
(-5.36034e-06 0.000336342 1.74906e-05)
(-5.52165e-06 0.000283028 1.42746e-05)
(1.50361e-06 0.000212437 1.20196e-05)
(-1.48446e-05 0.00027535 2.07274e-05)
(-2.3888e-05 0.000267728 2.21409e-05)
(-2.84996e-05 0.000333205 6.34309e-05)
(-1.31589e-05 0.000236585 4.48078e-05)
(-4.70003e-05 0.000283486 6.82155e-05)
(-6.03113e-05 0.000273846 8.39237e-05)
(-8.26246e-05 0.000332221 0.000164539)
(-5.06052e-05 0.000237157 0.000135019)
(-0.000101986 0.0002933 0.000207535)
(-0.000111568 0.000289477 0.000220015)
(-0.000143625 0.000351735 0.000348421)
(-0.000104464 0.000266663 0.00030212)
(-6.31171e-05 0.000180282 0.000240234)
(-0.000102955 0.000226759 0.000329596)
(-0.000103809 0.000230169 0.00030977)
(-0.000120629 0.000269253 0.000448582)
(-0.000106198 0.000196605 0.000375481)
(-5.9783e-05 0.000119396 0.000283675)
(-0.000130122 0.000115844 0.00039956)
(-0.00117604 0.00204672 0.00507509)
(-0.00138833 0.00240854 0.0054933)
(-0.00157742 0.00255274 0.00585005)
(-0.00187051 0.00253191 0.00632373)
(-0.00207424 0.00242651 0.00653665)
(-0.00215802 0.00220594 0.00668434)
(-0.00209662 0.00190282 0.00675396)
(-0.00191474 0.00151166 0.00669817)
(-0.00147215 0.000956797 0.00641769)
(-0.000766361 0.000285003 0.00612438)
(-9.5714e-05 -0.000433729 0.00573567)
(0.000338394 -0.00116691 0.00527454)
(0.000670364 -0.00189218 0.00504449)
(0.000652304 -0.00235657 0.00462654)
(0.000581318 -0.00259885 0.0041969)
(0.000402807 -0.00265754 0.003671)
(0.00019375 -0.00275666 0.003269)
(-1.32359e-05 -0.00268193 0.00274486)
(-0.000183037 -0.00255806 0.00236577)
(-0.000350717 -0.0023043 0.00197254)
(-0.000449674 -0.00205573 0.00169203)
(-0.00048857 -0.00177902 0.00142297)
(-0.00050078 -0.00150044 0.00121497)
(-0.000485195 -0.0012536 0.00104455)
(-0.000439281 -0.00104064 0.000911018)
(-0.000194579 -0.00041698 0.000354576)
(-0.000174322 -0.000313896 0.000265794)
(-0.000410266 -0.000862086 0.000797763)
(-0.000687607 -0.00152935 0.00141392)
(-0.00055407 -0.00123096 0.0011749)
(-0.0001914 -0.000410109 0.000374053)
(-0.000173738 -0.000351321 0.000297831)
(-0.000192164 -0.00045282 0.000372501)
(-0.0001576 -0.000385106 0.000295498)
(-0.000120849 -0.000306078 0.000245841)
(-0.000118405 -0.000394643 0.000278701)
(-0.000154258 -0.000515746 0.000346524)
(-8.83678e-05 -0.000421033 0.000288314)
(-5.48796e-05 -0.000305741 0.000204458)
(-4.73172e-05 -0.000397611 0.000264176)
(-2.35144e-05 -0.000515003 0.000354691)
(2.42375e-05 -0.000400399 0.000283167)
(1.87086e-05 -0.000273312 0.000197487)
(6.87817e-05 -0.000326335 0.000294525)
(7.97685e-05 -0.00023855 0.00022068)
(5.72912e-05 -0.000162978 0.000169029)
(0.000103232 -0.000168593 0.000247359)
(0.000100164 -0.00013055 0.000181012)
(5.15299e-05 -7.97099e-05 0.000148602)
(9.79923e-05 -5.79563e-05 0.000219882)
(9.16798e-05 -3.29562e-05 0.000161327)
(3.47715e-05 -8.20561e-06 0.000130092)
(5.86208e-05 2.96793e-05 0.000175062)
(5.82691e-05 2.92451e-05 0.000114553)
(4.76918e-05 0.000105929 0.000121138)
(7.90602e-06 9.27054e-05 9.78132e-05)
(1.95015e-05 0.000135929 0.000147217)
(2.7195e-05 0.000103485 9.68977e-05)
(1.65418e-05 0.000174755 0.000108339)
(-9.31252e-06 0.000141793 8.67705e-05)
(-8.30543e-06 0.000181006 0.000108411)
(-2.23957e-05 0.000225156 0.000115999)
(-8.65607e-06 0.000157858 6.33406e-05)
(-2.6713e-05 0.000134729 3.9822e-05)
(-2.25327e-05 0.000164919 3.63931e-05)
(-1.20292e-05 0.000189632 3.29406e-05)
(-1.33735e-05 0.000219306 2.44649e-05)
(-1.6901e-05 0.000238966 1.96533e-05)
(-1.88838e-05 0.000248117 2.00355e-05)
(-2.32687e-05 0.000258635 2.12122e-05)
(-2.31844e-05 0.00026545 1.44887e-05)
(-2.1131e-05 0.000259938 1.05823e-05)
(-1.72168e-05 0.000238476 1.7082e-05)
(-1.46287e-05 0.000210662 1.76106e-05)
(-4.089e-06 0.000175802 8.33495e-06)
(-1.72331e-05 0.000261665 2.60768e-06)
(-6.82893e-06 0.000378716 2.26783e-05)
(-2.45563e-06 0.000341098 9.79482e-06)
(-2.60295e-06 0.000286266 8.89043e-06)
(3.98144e-06 0.000215261 7.90999e-06)
(-9.05295e-06 0.000275785 1.27332e-05)
(-7.09852e-06 0.000347022 4.33235e-05)
(2.15313e-06 0.00024628 2.87902e-05)
(-2.3133e-05 0.000291313 4.16756e-05)
(-3.40784e-05 0.000291294 5.91435e-05)
(-5.02884e-05 0.00034499 0.000125275)
(-3.05339e-05 0.000237514 0.000105929)
(-7.5885e-05 0.000284627 0.000164122)
(-8.87153e-05 0.000287447 0.00018397)
(-0.000120521 0.000336464 0.000315762)
(-8.89764e-05 0.000232752 0.000268853)
(-5.50245e-05 0.00015895 0.000226023)
(-0.000100614 0.000194473 0.000335563)
(-0.000104424 0.000220293 0.0003416)
(-0.000117921 0.000247107 0.000515407)
(-0.000101931 0.000179919 0.000457654)
(-7.70453e-05 0.000130732 0.000417058)
(-4.29079e-05 7.1518e-05 0.000326283)
(-0.000101114 7.20537e-05 0.00044292)
(-9.96693e-05 8.2632e-05 0.000382945)
(-0.000101995 0.000123326 0.000403389)
(-3.65433e-05 5.42263e-05 0.000281497)