/*--------------------------------*- C++ -*----------------------------------*\
| =========                 |                                                 |
| \\      /  F ield         | OpenFOAM: The Open Source CFD Toolbox           |
|  \\    /   O peration     | Version:  5.0                                   |
|   \\  /    A nd           | Web:      www.OpenFOAM.org                      |
|    \\/     M anipulation  |                                                 |
\*---------------------------------------------------------------------------*/
FoamFile
{
    version     2.0;
    format      ascii;
    class       volVectorField;
    location    "60";
    object      URest;
}
// * * * * * * * * * * * * * * * * * * * * * * * * * * * * * * * * * * * * * //

dimensions      [0 1 -1 0 0 0 0];

internalField   nonuniform List<vector> 
36178
(
(-4.0953e-05 -0.000217265 0.000465465)
(-2.93835e-05 -0.000178066 0.000442551)
(-2.65019e-05 -0.000135703 0.000421225)
(-1.74523e-05 -9.35653e-05 0.000393254)
(-2.18273e-05 -8.87666e-05 0.000358486)
(-3.38379e-05 -0.000134295 0.000407884)
(-4.08184e-05 -0.000181637 0.00043685)
(-5.16285e-05 -0.000220629 0.000466901)
(-4.41059e-05 -0.000284269 0.000492528)
(-3.27874e-05 -0.000248651 0.00047496)
(-2.99273e-05 -0.000209254 0.000453795)
(-2.21036e-05 -0.000169465 0.000434451)
(-2.21291e-05 -0.000127252 0.000417693)
(-1.44755e-05 -8.8521e-05 0.000399466)
(-2.66449e-05 -0.000279913 0.000473824)
(-1.80698e-05 -0.000239777 0.000451927)
(-1.86336e-05 -0.000199384 0.000435891)
(-1.35638e-05 -0.000159368 0.000418654)
(-1.65477e-05 -0.000117526 0.000404374)
(-1.13514e-05 -7.80304e-05 0.00038858)
(-0.000192064 -0.000268258 0.00354992)
(-0.000239604 -0.000479046 0.00368348)
(-0.000245342 -0.000698643 0.00376339)
(-0.000273915 -0.000925553 0.00389868)
(-0.000259619 -0.00115165 0.00397434)
(-0.000281392 -0.00138893 0.00410958)
(-0.000266857 -0.00161315 0.00417746)
(-0.00029543 -0.00184563 0.00431308)
(-0.000284856 -0.00205735 0.004373)
(-0.000327187 -0.00226834 0.00449677)
(-0.00034005 -0.00245354 0.00455071)
(-0.000406034 -0.00262519 0.00466412)
(-0.000440905 -0.00276446 0.00470539)
(-0.000532644 -0.00287986 0.00479779)
(-0.000592349 -0.00296995 0.00481352)
(-0.000700516 -0.00304229 0.00488587)
(-0.000768162 -0.00310132 0.00489144)
(-0.000862044 -0.00317073 0.00495436)
(-9.5162e-05 -0.000382827 0.000510025)
(-7.65723e-05 -0.000367002 0.000515924)
(-5.85172e-05 -0.000389871 0.000532828)
(-4.56387e-05 -0.000376301 0.000509685)
(-2.96919e-05 -0.000361585 0.000493393)
(-2.30711e-05 -0.000335381 0.000480728)
(-1.07019e-05 -0.000303472 0.000464507)
(-9.72612e-06 -0.000268225 0.000448774)
(-4.79396e-06 -0.000227734 0.000427916)
(-9.62895e-06 -0.000186227 0.000414111)
(-7.50502e-06 -0.000146821 0.000398274)
(-1.37301e-05 -0.000105243 0.000386809)
(-1.21399e-05 -6.63001e-05 0.000370968)
(-1.49531e-05 -2.69912e-05 0.000361924)
(-7.96023e-06 7.55371e-06 0.000353938)
(-0.000232314 -0.000232549 0.00346515)
(-0.00026623 -0.000446346 0.00360528)
(-0.000256356 -0.000638078 0.00367981)
(-0.000267412 -0.000867611 0.00381563)
(-0.000236343 -0.00106801 0.00387881)
(-0.000242563 -0.00130965 0.00400093)
(-0.000211053 -0.00150972 0.00404672)
(-0.000223141 -0.00175288 0.00416188)
(-0.000197533 -0.00194443 0.00419849)
(-0.000225611 -0.00217566 0.00430025)
(-0.000224708 -0.00234475 0.00432348)
(-0.00028102 -0.00253327 0.00441186)
(-0.000308591 -0.00265367 0.00441998)
(-0.000396534 -0.00277876 0.00448123)
(-0.000463885 -0.00284443 0.00445841)
(-0.000575191 -0.00292794 0.00449921)
(-0.000646969 -0.00297423 0.0044683)
(-0.000754067 -0.00304944 0.00451357)
(-0.000102501 -0.000279298 0.000362483)
(-9.90417e-05 -0.000282672 0.000362291)
(-8.58697e-05 -0.000276311 0.00035458)
(-8.03887e-05 -0.000283686 0.000355517)
(-6.79551e-05 -0.000284645 0.00036088)
(-5.50866e-05 -0.000285743 0.000360449)
(-5.10758e-05 -0.000303367 0.000372189)
(-3.20933e-05 -0.000329315 0.000404589)
(-1.07437e-05 -0.000343768 0.000416935)
(4.39051e-06 -0.000341151 0.000419092)
(2.04305e-05 -0.00032088 0.000410874)
(2.33758e-05 -0.000296921 0.000402942)
(2.83467e-05 -0.000260802 0.000393982)
(2.45203e-05 -0.000227592 0.000395941)
(2.23502e-05 -0.000170973 0.000362078)
(1.01617e-05 -0.000137545 0.000345)
(3.68312e-06 -0.000107318 0.000357587)
(-9.81865e-06 -7.05198e-05 0.000348171)
(-1.45904e-05 -3.42002e-05 0.000316906)
(-2.47734e-05 -6.05383e-06 0.00031244)
(-2.81395e-05 2.72106e-05 0.000316761)
(-3.01279e-05 5.40243e-05 0.000298898)
(-2.03622e-05 7.8576e-05 0.000283865)
(-0.000678017 -0.000479066 0.005163)
(-0.000747956 -0.000771089 0.00564253)
(-0.000736472 -0.00104939 0.00600745)
(-0.000716597 -0.00132417 0.00629849)
(-0.000639992 -0.00160698 0.00648772)
(-0.00054875 -0.00189015 0.00655646)
(-0.000429716 -0.0021864 0.00654532)
(-0.000327951 -0.00249871 0.00644467)
(-0.000265507 -0.00283496 0.00630233)
(-0.000288538 -0.00320481 0.00629104)
(-0.000273548 -0.00359971 0.0065714)
(-0.000411159 -0.00387528 0.00657702)
(-0.000481689 -0.0040399 0.00648538)
(-0.000616261 -0.00422155 0.00647158)
(-0.000711761 -0.00428591 0.00631889)
(-0.000842548 -0.00433247 0.00622871)
(-0.000940038 -0.0042786 0.00603144)
(-0.00105209 -0.00419309 0.00584194)
(-0.00113028 -0.00407824 0.00560762)
(-0.00119667 -0.003952 0.0053963)
(-0.00119786 -0.00381757 0.0051033)
(-0.000139789 -0.000332565 0.000420983)
(-0.000176705 -0.000388028 0.000461197)
(-0.000192682 -0.000448503 0.000526081)
(-0.000191995 -0.000499161 0.000565339)
(-0.000186501 -0.000542712 0.000607026)
(-0.000170493 -0.000592168 0.000648436)
(-0.000153828 -0.000648607 0.000720997)
(-9.49294e-05 -0.000459045 0.00051121)
(-5.38394e-05 -0.000303924 0.000333957)
(-1.67707e-05 -0.000326423 0.000356911)
(1.58676e-06 -0.000371231 0.000388884)
(3.25536e-05 -0.000400848 0.000432749)
(6.42604e-05 -0.000409021 0.000447011)
(8.47928e-05 -0.000354651 0.000452192)
(6.6319e-05 -0.000245948 0.000281842)
(3.21958e-05 -0.000144049 0.000181639)
(6.35583e-05 -0.000143418 0.000198938)
(6.78508e-05 -0.000122923 0.000203468)
(6.59713e-05 -0.000109347 0.000231261)
(3.77845e-05 -6.18506e-05 0.000132703)
(7.08924e-06 -2.15857e-05 8.71204e-05)
(1.7528e-05 -7.31342e-06 9.72828e-05)
(1.11131e-05 1.10776e-05 0.000110624)
(-3.49322e-06 3.82293e-05 0.000109457)
(-1.00868e-05 5.43577e-05 0.000137743)
(-1.54608e-05 4.77033e-05 7.57981e-05)
(-1.97164e-05 4.63133e-05 4.43581e-05)
(-1.69953e-05 5.09641e-05 5.05872e-05)
(-2.17648e-05 5.502e-05 5.28027e-05)
(-2.24175e-05 5.53554e-05 5.08838e-05)
(-1.91449e-05 4.97108e-05 5.23529e-05)
(-3.97077e-05 7.29567e-05 7.30937e-05)
(-3.47599e-05 6.76308e-05 8.15098e-05)
(-3.27181e-05 6.37106e-05 8.07439e-05)
(-3.01e-05 5.96761e-05 8.53961e-05)
(-2.0729e-05 5.38511e-05 8.22233e-05)
(-1.55261e-05 4.00036e-05 7.24029e-05)
(-6.37811e-06 2.59889e-05 0.000132774)
(-1.48909e-05 4.36481e-05 0.000149723)
(-2.78061e-05 5.23655e-05 0.000151424)
(-3.3076e-05 6.39807e-05 0.000144526)
(-3.94007e-05 7.04457e-05 0.000130493)
(-3.98935e-05 6.53893e-05 0.000128615)
(-4.59723e-05 6.57128e-05 0.00012536)
(-3.70821e-05 5.42441e-05 0.00011075)
(-3.36959e-05 4.67331e-05 9.76332e-05)
(-6.22496e-05 6.91268e-05 0.000137765)
(-5.82558e-05 7.94264e-05 0.000147235)
(-6.27281e-05 8.15882e-05 0.000173819)
(-5.09237e-05 6.14371e-05 0.000170481)
(-4.27328e-05 5.9446e-05 0.000177755)
(-2.48734e-05 3.85735e-05 0.000118092)
(-2.70448e-05 3.96931e-05 0.000123511)
(-2.03121e-05 3.24758e-05 0.000133449)
(-1.71829e-05 2.80538e-05 0.000140382)
(-1.0645e-05 1.8505e-05 0.00015148)
(-1.53227e-06 3.81272e-06 0.000151493)
(5.66949e-06 -1.18736e-05 0.00013906)
(9.66952e-06 -3.15445e-05 0.000133676)
(7.5282e-06 1.04441e-05 0.000131865)
(1.49268e-05 -6.64845e-06 0.000132577)
(2.3116e-05 -2.7684e-05 0.000115232)
(9.66778e-06 -4.03256e-05 0.000103142)
(4.24213e-05 -9.09582e-05 0.000178002)
(4.31954e-05 -8.41817e-05 0.000165921)
(7.80198e-05 -0.00015877 0.000271847)
(6.88467e-05 -0.000164916 0.000241666)
(7.29197e-05 -0.000188791 0.000250048)
(4.06616e-05 -0.000172923 0.000220016)
(7.43213e-05 -0.000297756 0.000390656)
(6.183e-05 -0.000313999 0.000345418)
(9.67302e-05 -0.000462572 0.000561441)
(5.27079e-05 -0.000440543 0.000488879)
(3.68302e-05 -0.000470505 0.000533635)
(-1.14947e-06 -0.000469288 0.000515531)
(-3.08199e-05 -0.000458107 0.000495006)
(-6.28935e-05 -0.00043203 0.000472435)
(-8.33275e-05 -0.000388905 0.000432465)
(-8.08446e-05 -0.0003424 0.00040079)
(-0.000139846 -0.000488646 0.000562828)
(-0.00014606 -0.000438603 0.000510917)
(-0.00015955 -0.000398423 0.000481142)
(-0.000160411 -0.000369138 0.000451799)
(-0.00015903 -0.000333493 0.000421194)
(-0.000148494 -0.000296523 0.000388412)
(-9.48142e-05 -0.000237971 0.00031778)
(-0.000102773 -0.000261175 0.00033699)
(-0.00010309 -0.00028376 0.000356615)
(-0.000102501 -0.000301374 0.000373811)
(-9.00207e-05 -0.000320183 0.000383691)
(-0.000162043 -0.000432886 0.000471582)
(-0.000148236 -0.000427154 0.000500418)
(-0.000129282 -0.000483777 0.000551192)
(-0.000114412 -0.000510239 0.000569734)
(-7.68016e-05 -0.000524803 0.000578373)
(-5.17878e-05 -0.000531557 0.000587785)
(-9.20228e-06 -0.000530141 0.000595497)
(6.89778e-06 -0.000523226 0.000586044)
(4.72455e-05 -0.000520082 0.000620742)
(5.24225e-05 -0.000358091 0.000432438)
(2.25378e-05 -0.000208834 0.000239674)
(5.69275e-05 -0.000237786 0.000283464)
(6.26673e-05 -0.000243312 0.000302777)
(6.38537e-05 -0.000208961 0.000284413)
(6.31001e-05 -0.000193996 0.00031915)
(3.71217e-05 -0.000112973 0.000196181)
(1.06398e-05 -4.86038e-05 0.000122426)
(1.60776e-05 -4.07856e-05 0.000129912)
(2.75761e-05 -0.000100902 0.000211958)
(3.24784e-05 -0.000126415 0.000203387)
(4.62506e-05 -0.000209067 0.000333425)
(3.49098e-05 -0.000186649 0.000355457)
(3.94495e-05 -0.000156276 0.000373347)
(1.05285e-05 -8.25403e-05 0.000234707)
(-3.7102e-06 -3.04755e-05 0.000134789)
(2.0229e-06 -2.14699e-05 0.000139618)
(-4.44468e-06 -8.58198e-06 0.000139492)
(-3.43429e-07 -6.10453e-07 0.000128589)
(-1.69969e-05 1.00555e-05 0.000210741)
(-9.84089e-06 -4.3264e-06 0.000202243)
(-6.92301e-06 -2.98771e-05 0.000216472)
(3.70434e-06 -5.12308e-05 0.000218154)
(6.82487e-06 -7.78319e-05 0.000216435)
(3.49715e-06 -0.000126771 0.000514103)
(8.49883e-06 -6.10468e-05 0.000520864)
(2.79951e-05 -0.000118953 0.000504514)
(2.37126e-05 -8.53198e-05 0.000227048)
(4.72945e-05 -0.000164332 0.000495185)
(6.10155e-05 -0.000199153 0.000472631)
(7.50687e-05 -0.000113401 0.000440416)
(6.14714e-05 -0.000156656 0.000407404)
(3.97603e-05 -0.000112254 0.000196432)
(5.54236e-05 -5.42101e-05 0.000383627)
(5.94059e-05 -0.000100037 0.000347462)
(4.63872e-05 1.77312e-05 0.000302238)
(9.43065e-06 1.71534e-05 7.12635e-05)
(-1.83562e-06 4.11855e-05 8.18457e-05)
(-5.55999e-06 6.32951e-05 0.000105554)
(-1.17646e-05 5.4568e-05 5.51053e-05)
(-1.78422e-05 5.25881e-05 3.19155e-05)
(-1.64577e-05 6.06072e-05 3.78179e-05)
(-2.24378e-05 7.57512e-05 4.01951e-05)
(-2.22573e-05 8.53705e-05 4.68162e-05)
(-2.73633e-05 9.09949e-05 4.68393e-05)
(-2.65783e-05 8.86554e-05 4.68284e-05)
(-3.12812e-05 8.21896e-05 4.84823e-05)
(-2.33291e-05 6.85164e-05 4.59835e-05)
(-2.6873e-05 6.26486e-05 4.10158e-05)
(-2.10652e-05 5.22091e-05 3.63499e-05)
(-4.47237e-05 7.44559e-05 5.95313e-05)
(-4.35594e-05 7.65799e-05 6.13797e-05)
(-5.13192e-05 8.13358e-05 6.72447e-05)
(-5.00284e-05 9.49325e-05 7.64135e-05)
(-6.82544e-05 0.000100793 0.000150297)
(-6.47164e-05 9.66189e-05 0.000125387)
(-5.63451e-05 8.63829e-05 0.000109959)
(-5.1718e-05 6.74488e-05 9.59055e-05)
(-3.61752e-05 5.42733e-05 9.09846e-05)
(-6.86412e-05 7.23771e-05 0.000133873)
(-6.44959e-05 8.34038e-05 0.000142974)
(-7.96848e-05 9.63129e-05 0.000219283)
(-0.000830064 -0.00053259 0.00490579)
(-0.000876966 -0.000690221 0.00538588)
(-0.00090405 -0.000868676 0.0058305)
(-0.000838015 -0.00103617 0.00613243)
(-0.000803199 -0.00124814 0.00649182)
(-0.000706405 -0.00137021 0.00659912)
(-0.000649815 -0.00143932 0.00644141)
(-0.000517825 -0.00159382 0.00628368)
(-0.000380103 -0.00179644 0.00603162)
(-0.000252485 -0.00206782 0.00572423)
(-0.000168712 -0.00243133 0.0055531)
(-9.73622e-05 -0.0028381 0.00564342)
(-0.000182961 -0.00313329 0.00554483)
(-0.000205044 -0.00334357 0.00537508)
(-0.000304802 -0.00351456 0.00524303)
(-0.000383903 -0.00363704 0.00505607)
(-0.000538716 -0.00365501 0.00486515)
(-0.000630193 -0.00361677 0.00464473)
(-0.000740482 -0.00345435 0.00436785)
(-0.000847811 -0.00336906 0.00421709)
(-0.000901852 -0.00311423 0.00388932)
(-0.000900661 -0.00288679 0.00356736)
(-0.000899308 -0.00256949 0.00324879)
(-0.000235994 -0.000507515 0.000618055)
(-0.000174297 -0.000373801 0.000453776)
(-0.000116997 -0.000266552 0.000331727)
(-0.000111789 -0.00030601 0.00038045)
(-0.00011112 -0.000350624 0.000417179)
(-9.79598e-05 -0.000385432 0.000446139)
(-0.00010699 -0.000446079 0.000485173)
(-8.6171e-05 -0.000505746 0.000548631)
(-5.07418e-05 -0.00057668 0.000568849)
(-1.27753e-05 -0.00065455 0.000669723)
(2.24414e-05 -0.000461305 0.00045815)
(1.39987e-05 -0.000296059 0.000295186)
(5.72364e-05 -0.000317383 0.000349265)
(8.32539e-05 -0.000305154 0.000342129)
(9.52686e-05 -0.000307874 0.000394782)
(7.45996e-05 -0.000179889 0.000245197)
(4.27347e-05 -9.98888e-05 0.000160875)
(5.46005e-05 -8.52874e-05 0.000159047)
(5.96756e-05 -6.59794e-05 0.000180808)
(3.09078e-05 -2.85073e-05 0.000110987)
(6.62505e-07 -1.03109e-06 6.44768e-05)
(-1.76917e-06 3.83076e-05 4.78432e-05)
(-7.62497e-06 6.16548e-05 6.09013e-05)
(-9.77521e-06 5.82618e-05 3.25087e-05)
(-1.65155e-05 5.47543e-05 1.7977e-05)
(-1.58464e-05 6.59154e-05 2.24567e-05)
(-2.0988e-05 8.49299e-05 2.54239e-05)
(-2.09709e-05 9.9712e-05 3.27999e-05)
(-2.58792e-05 0.000107088 3.46924e-05)
(-2.48733e-05 0.000112289 3.8667e-05)
(-2.89258e-05 0.000115963 4.06278e-05)
(-2.57723e-05 0.000112544 4.00626e-05)
(-2.89446e-05 0.000109672 3.99773e-05)
(-2.69337e-05 0.00010548 3.7513e-05)
(-2.94684e-05 9.51306e-05 3.80386e-05)
(-2.77121e-05 7.90794e-05 3.5465e-05)
(-1.65492e-05 5.61726e-05 3.23948e-05)
(-4.24683e-05 7.52678e-05 4.50603e-05)
(-4.45824e-05 8.6503e-05 6.14469e-05)
(-6.72849e-05 0.000100552 0.000107552)
(-5.09535e-05 7.35868e-05 8.50309e-05)
(-3.52246e-05 5.35049e-05 8.31543e-05)
(-6.56598e-05 7.05499e-05 0.000107068)
(-6.84113e-05 8.69656e-05 0.000132108)
(-9.23642e-05 9.55467e-05 0.000204967)
(-6.16986e-05 7.62434e-05 0.000150779)
(-3.76509e-05 6.57185e-05 0.000137624)
(-6.21632e-05 0.000108287 0.000195186)
(-5.04419e-05 0.000135778 0.000234823)
(-0.000984528 -0.00272618 0.00914329)
(-0.00103746 -0.00302986 0.00979903)
(-0.00102653 -0.00330144 0.0103156)
(-0.00102094 -0.00354698 0.0107296)
(-0.000941899 -0.00374987 0.0110091)
(-0.000879378 -0.00391415 0.0111578)
(-0.000790532 -0.00406653 0.0111928)
(-0.000729383 -0.00423434 0.0111193)
(-0.000689883 -0.00443572 0.0109459)
(-0.000678148 -0.00471934 0.0107896)
(-0.000779943 -0.00496212 0.0103621)
(-0.000866166 -0.00528091 0.0100562)
(-0.000989177 -0.00555772 0.00968944)
(-0.00116148 -0.0057293 0.00932136)
(-0.0013068 -0.00575243 0.00882629)
(-0.00128254 -0.00569574 0.00840769)
(-0.00136607 -0.00558347 0.00813219)
(-0.00140534 -0.00543071 0.00782022)
(-0.000211572 -0.000478369 0.000591529)
(-0.000170253 -0.000382099 0.000467102)
(-0.00012993 -0.000287078 0.000354324)
(-0.000134874 -0.000333887 0.000415041)
(-0.000142202 -0.000404474 0.000453628)
(-0.000175382 -0.000495562 0.000538668)
(-0.000175648 -0.000598318 0.000622979)
(-0.000165874 -0.000676974 0.000711054)
(-9.85651e-05 -0.000494012 0.000529133)
(-5.78452e-05 -0.000338512 0.000354508)
(-3.58773e-05 -0.000405644 0.000392948)
(7.05975e-06 -0.000461998 0.000448228)
(4.38005e-05 -0.000485378 0.000489422)
(5.04745e-05 -0.000340893 0.000347159)
(4.02108e-05 -0.000218989 0.000225857)
(6.36727e-05 -0.000238081 0.000249883)
(8.90974e-05 -0.00021777 0.000284977)
(5.96035e-05 -0.000131804 0.000166137)
(2.24841e-05 -7.40434e-05 0.000106434)
(4.25601e-05 -5.35013e-05 0.000111953)
(3.52904e-05 -2.35677e-05 0.000137187)
(1.95608e-05 -2.65214e-06 6.71974e-05)
(-3.62434e-06 1.75643e-05 4.62368e-05)
(-9.79935e-06 5.74632e-05 2.71072e-05)
(-2.19256e-05 8.97745e-05 3.75721e-05)
(-1.63666e-05 7.2848e-05 8.17739e-06)
(-1.90183e-05 6.49213e-05 7.45714e-06)
(-2.26996e-05 8.82562e-05 8.29547e-06)
(-2.26305e-05 0.000109218 1.49347e-05)
(-2.48362e-05 0.000121046 1.68716e-05)
(-2.23082e-05 0.000130197 2.24413e-05)
(-2.65602e-05 0.000137453 2.59111e-05)
(-2.36641e-05 0.000140123 2.96494e-05)
(-2.7028e-05 0.000142445 3.24393e-05)
(-2.2511e-05 0.000138969 3.37498e-05)
(-2.34398e-05 0.000134741 3.41752e-05)
(-1.98602e-05 0.00012925 3.28222e-05)
(-2.16326e-05 0.000116311 3.20398e-05)
(-1.83022e-05 0.000100674 2.99404e-05)
(-1.5661e-05 7.61336e-05 3.04844e-05)
(-3.78575e-05 9.22481e-05 4.03413e-05)
(-5.77614e-05 0.000116096 9.6949e-05)
(-4.57637e-05 8.40447e-05 7.30792e-05)
(-2.63116e-05 5.63926e-05 6.65422e-05)
(-5.82056e-05 7.24957e-05 9.36259e-05)
(-5.98436e-05 9.24858e-05 0.00011284)
(-7.18113e-05 8.14536e-05 0.000112056)
(-9.62881e-05 9.99173e-05 0.000193842)
(-7.24996e-05 7.18602e-05 0.000142678)
(-4.19993e-05 5.11526e-05 0.000124297)
(-7.51279e-05 7.24487e-05 0.000179272)
(-7.09853e-05 9.67404e-05 0.000201142)
(-8.25066e-05 9.08696e-05 0.000207864)
(-0.000163166 -0.000403748 0.000479586)
(-0.000155827 -0.000413882 0.000487758)
(-0.000135874 -0.000415999 0.000487296)
(-0.00012208 -0.000421854 0.000492444)
(-9.77118e-05 -0.000431287 0.000495462)
(-8.63686e-05 -0.000457745 0.000525447)
(-3.11451e-05 -0.000399477 0.000469503)
(-1.44952e-05 -0.000230781 0.000268876)
(4.16683e-06 -0.000264427 0.000302331)
(2.4847e-05 -0.000295207 0.00034591)
(3.72184e-05 -0.000297525 0.000354465)
(4.91254e-05 -0.000283691 0.000357386)
(4.65563e-05 -0.000232796 0.00033758)
(9.57383e-05 -0.000715995 0.00116235)
(0.000104456 -0.000827686 0.00119675)
(7.44927e-05 -0.000886724 0.00119256)
(6.45197e-05 -0.000906249 0.00116496)
(1.47608e-05 -0.000866471 0.00106096)
(-2.40522e-05 -0.000787875 0.000975273)
(1.30145e-05 -0.000400221 0.00044482)
(-2.83686e-05 -0.00158708 0.00208212)
(-0.000139884 -0.00158113 0.00203617)
(-5.86696e-05 -0.000603647 0.000692271)
(-7.82475e-05 -0.000598471 0.000656532)
(-0.000117187 -0.000593193 0.000654132)
(-0.00013613 -0.000590228 0.000646968)
(-0.000170934 -0.000583947 0.000646713)
(-0.000178425 -0.000569842 0.000627334)
(-0.000222697 -0.000561655 0.000656178)
(-0.000489514 -0.00154566 0.00191131)
(-0.000162501 -0.000353863 0.000433045)
(-0.000176803 -0.000381787 0.000452175)
(-0.000175646 -0.000406072 0.000469794)
(-0.000179878 -0.000422811 0.000485904)
(-0.000191287 -0.000500951 0.000632922)
(-0.000166286 -0.000415108 0.000523321)
(-0.000137062 -0.00031611 0.00039526)
(-0.000138974 -0.000401207 0.000463794)
(-0.000184103 -0.000513412 0.000556746)
(-0.000194689 -0.000638106 0.000689571)
(-0.000138814 -0.000494117 0.000542678)
(-9.82342e-05 -0.000348679 0.000370813)
(-6.68272e-05 -0.000402388 0.00042738)
(-7.19419e-05 -0.000475488 0.00047697)
(-3.57246e-05 -0.000579902 0.000561158)
(1.78898e-06 -0.000447821 0.000449443)
(3.58819e-06 -0.00028706 0.000270467)
(3.66053e-05 -0.000336553 0.000311292)
(6.56916e-05 -0.000379723 0.000354755)
(9.38128e-05 -0.000400955 0.000405819)
(9.05109e-05 -0.000275579 0.000284409)
(4.8963e-05 -0.000167668 0.000185292)
(7.32524e-05 -0.000143354 0.000214563)
(4.66588e-05 -5.6536e-05 0.000119698)
(1.86093e-05 -2.27755e-05 7.55127e-05)
(2.47416e-05 4.72453e-06 8.45782e-05)
(8.99936e-06 2.40449e-05 4.01333e-05)
(-9.45658e-06 3.06677e-05 2.45805e-05)
(-2.2961e-05 7.57136e-05 7.69896e-06)
(-2.67673e-05 9.92948e-05 8.68352e-06)
(-2.29768e-05 8.67502e-05 -6.00342e-06)
(-2.13496e-05 7.07747e-05 -4.54101e-06)
(-2.68879e-05 9.82568e-05 -5.42855e-06)
(-2.85488e-05 0.000123854 -1.36352e-06)
(-2.63507e-05 0.000141627 2.01179e-06)
(-2.84809e-05 0.000148934 9.72865e-06)
(-2.84499e-05 0.000165612 1.32313e-05)
(-3.13907e-05 0.000174161 1.89894e-05)
(-2.72076e-05 0.000176216 2.31123e-05)
(-2.87347e-05 0.00017555 2.63024e-05)
(-2.27256e-05 0.000170159 2.78281e-05)
(-1.99988e-05 0.000160866 2.54394e-05)
(-1.47341e-05 0.000150329 2.3634e-05)
(-1.73655e-05 0.000138599 2.93219e-05)
(-1.41561e-05 0.000119196 2.99399e-05)
(-1.64473e-05 9.34084e-05 3.14771e-05)
(-5.18555e-06 6.45908e-05 2.3543e-05)
(-2.86039e-05 8.67737e-05 3.76621e-05)
(-2.87542e-05 9.7435e-05 4.99058e-05)
(-6.26395e-05 0.000198928 0.000134927)
(-7.70542e-05 0.000254268 0.000151096)
(-6.71702e-05 0.000315392 0.000176831)
(-7.96537e-05 0.000361826 0.000188717)
(-6.66819e-05 0.000397136 0.000186307)
(-7.32856e-05 0.000424098 0.000187495)
(-6.03317e-05 0.000441034 0.000189168)
(-7.40589e-05 0.000453421 0.000183554)
(-6.33417e-05 0.00045381 0.000170348)
(-7.72778e-05 0.000448966 0.000153582)
(-6.9107e-05 0.000432801 0.00013255)
(-8.59199e-05 0.000407484 0.000112275)
(-7.74931e-05 0.000379915 9.50326e-05)
(-8.32077e-05 0.000332865 7.0281e-05)
(-6.74435e-05 0.000268195 4.66262e-05)
(-5.59673e-05 0.000208703 3.63528e-05)
(-2.15856e-05 9.27797e-05 1.41879e-05)
(-8.39912e-05 0.000304148 5.86558e-06)
(-3.95562e-05 0.000135636 -1.80709e-05)
(-3.17639e-05 0.000110104 -1.62484e-05)
(-3.4181e-05 0.000138287 -1.85396e-05)
(-3.51395e-05 0.000155246 -1.32542e-05)
(-3.82864e-05 0.000181771 -1.01755e-05)
(-4.53812e-05 0.000200325 -2.73207e-06)
(-2.14798e-05 0.000135035 -1.96744e-05)
(-1.05111e-05 9.41527e-05 -4.05342e-06)
(-1.03145e-05 0.000100342 -3.24341e-06)
(-7.44481e-06 0.000100773 8.7105e-07)
(-6.00183e-06 9.87432e-05 3.76311e-06)
(-3.04281e-06 9.26204e-05 6.0274e-06)
(1.80264e-07 7.82825e-05 5.79328e-06)
(-1.14667e-05 0.000125908 3.68741e-06)
(-9.70833e-06 0.000131356 1.3792e-05)
(-1.30569e-05 0.000134932 8.287e-06)
(-1.70174e-05 0.000139547 7.51997e-06)
(-1.75089e-05 0.000142012 4.71226e-06)
(-2.12795e-05 0.000140378 1.69009e-06)
(-1.85126e-05 0.000132989 -3.06291e-06)
(-3.84843e-05 0.000293946 1.59818e-05)
(-6.54582e-05 0.000370266 -1.07484e-05)
(-2.37381e-05 0.000128674 -1.74441e-05)
(-2.12459e-05 0.000139027 -1.32358e-05)
(-1.6877e-05 0.000138483 -6.68015e-06)
(-1.39192e-05 0.000134185 -1.69666e-06)
(-9.17171e-06 0.000122587 2.95163e-06)
(-5.05405e-06 0.000100951 5.96254e-06)
(-1.0041e-05 0.000145987 4.07791e-07)
(-1.38708e-05 0.00019681 2.86422e-05)
(-1.00306e-05 0.000170758 1.54048e-05)
(-8.72576e-06 0.000148973 2.23788e-05)
(-1.04822e-05 0.000120717 2.38816e-05)
(-5.09551e-06 8.80634e-05 1.7963e-05)
(-1.95064e-05 0.000108546 2.92581e-05)
(-2.40489e-05 9.91444e-05 3.3742e-05)
(-3.5829e-05 0.000117008 7.12966e-05)
(-2.22479e-05 8.05398e-05 5.57289e-05)
(-5.08661e-05 8.96399e-05 8.34362e-05)
(-5.81716e-05 7.96031e-05 9.18181e-05)
(-7.90607e-05 8.68853e-05 0.000156966)
(-4.81858e-05 5.7023e-05 0.000125197)
(-8.60092e-05 6.43899e-05 0.000186352)
(-8.18935e-05 6.33627e-05 0.000186429)
(-0.000102621 6.809e-05 0.000284528)
(-7.5245e-05 4.90113e-05 0.000228387)
(-4.03915e-05 2.23028e-05 0.000180089)
(-7.8055e-05 3.40615e-05 0.000236131)
(-7.80313e-05 7.0663e-05 0.000271458)
(-0.000142224 -0.000403814 0.000514882)
(-0.000125135 -0.000328218 0.000423258)
(-0.000134663 -0.000426399 0.000494417)
(-0.000173081 -0.000555551 0.000626827)
(-0.000139387 -0.000471303 0.000528457)
(-0.00011272 -0.000351019 0.000382428)
(-8.82812e-05 -0.000417566 0.000459095)
(-0.0001028 -0.000537678 0.00050898)
(-7.33592e-05 -0.000683365 0.000661255)
(-2.69978e-05 -0.000516333 0.000515663)
(-1.50358e-05 -0.000344073 0.000322804)
(2.18514e-05 -0.000416786 0.000376723)
(4.85125e-05 -0.000500427 0.000461961)
(6.32559e-05 -0.000362144 0.000318235)
(4.02869e-05 -0.000234639 0.000213593)
(6.75612e-05 -0.000243102 0.000228032)
(8.91444e-05 -0.000262648 0.000303389)
(7.30704e-05 -0.000146977 0.000207563)
(3.34368e-05 -7.04305e-05 0.000120401)
(4.32208e-05 -5.06073e-05 0.000154879)
(2.54433e-05 6.46037e-06 8.58603e-05)
(-3.03666e-06 3.08812e-05 4.40482e-05)
(-1.10186e-05 6.67575e-05 4.81868e-05)
(-1.31595e-05 8.27276e-05 2.14686e-05)
(-1.62097e-05 9.0346e-05 1.80857e-05)
(-2.34543e-05 7.44983e-05 -4.42565e-06)
(-3.63889e-05 0.000112727 -1.00907e-05)
(-5.51307e-05 0.000161214 -1.40745e-05)
(-3.79217e-05 0.000144516 -1.72366e-05)
(-2.68474e-05 0.000100376 -2.25524e-05)
(-4.01246e-05 0.000137953 -3.40658e-05)
(-4.06292e-05 0.000162929 -2.85082e-05)
(-5.21231e-05 0.000198843 -3.38147e-05)
(-2.898e-05 0.000140113 -3.8548e-05)
(-1.6396e-05 9.99156e-05 -1.93558e-05)
(-1.87799e-05 0.00011302 -2.14275e-05)
(-3.22328e-05 0.000151802 -3.71536e-05)
(-3.03632e-05 0.000157187 -3.14741e-05)
(-2.88912e-05 0.000159691 -2.58923e-05)
(-2.27905e-05 0.000156951 -1.77665e-05)
(-1.82449e-05 0.00014988 -1.05683e-05)
(-1.15971e-05 0.000135142 -3.17473e-06)
(-8.28213e-06 0.000115291 3.41159e-07)
(2.15156e-06 9.00385e-05 -5.9677e-07)
(-6.0614e-06 0.000135238 1.32729e-06)
(-3.57128e-06 0.000155461 1.02612e-05)
(-1.31938e-05 0.000296994 3.15184e-05)
(-3.06909e-05 0.000348422 2.6241e-05)
(-3.46647e-05 0.000398743 2.70737e-05)
(-5.1933e-05 0.000433932 1.13975e-05)
(-6.12592e-05 0.000452027 -5.49033e-06)
(-7.79653e-05 0.000460125 -2.66636e-05)
(-8.07009e-05 0.000452645 -4.46596e-05)
(-9.00799e-05 0.000432297 -6.26941e-05)
(-8.12285e-05 0.000384468 -6.76644e-05)
(-3.08842e-05 0.000134137 -3.82919e-05)
(-3.29001e-05 0.00015223 -5.32183e-05)
(-3.42645e-05 0.000163784 -5.14005e-05)
(-3.0384e-05 0.000168369 -4.91043e-05)
(-2.71546e-05 0.000170154 -4.41463e-05)
(-2.02794e-05 0.000166233 -3.37463e-05)
(-1.68041e-05 0.000159227 -2.38404e-05)
(-1.13143e-05 0.000146203 -1.47883e-05)
(-8.12523e-06 0.000129974 -8.74061e-06)
(-3.27027e-06 0.000103546 -4.84439e-06)
(-5.29833e-06 0.000144281 -4.7881e-06)
(-6.16444e-06 0.00019197 6.57828e-06)
(-2.59711e-06 0.000164322 8.76538e-06)
(-4.88334e-06 0.000132681 1.12127e-05)
(-2.38764e-07 9.5289e-05 8.82496e-06)
(-9.55695e-06 0.000116776 1.70522e-05)
(-1.40757e-05 0.000114276 2.29373e-05)
(-2.20378e-05 0.00013068 5.57882e-05)
(-1.23128e-05 8.79554e-05 4.2737e-05)
(-3.73797e-05 9.74322e-05 6.44454e-05)
(-4.57523e-05 9.50391e-05 7.56512e-05)
(-6.72447e-05 9.67289e-05 0.000137833)
(-4.05734e-05 5.89403e-05 0.000111071)
(-8.12671e-05 6.37973e-05 0.000168563)
(-8.23566e-05 6.4713e-05 0.000179492)
(-0.000111986 5.97943e-05 0.000287827)
(-8.5922e-05 3.81427e-05 0.000255144)
(-5.42825e-05 1.48933e-05 0.000203908)
(-8.86802e-05 5.97579e-06 0.000278014)
(-8.7596e-05 1.21975e-05 0.000265514)
(-0.000100297 -1.60184e-05 0.000390148)
(-8.67465e-05 -3.90866e-05 0.000328899)
(-4.38745e-05 -5.653e-05 0.000250498)
(-9.58073e-05 -0.000115028 0.000362551)
(-0.000880976 -0.000745758 0.00472084)
(-0.000939015 -0.00078542 0.00513988)
(-0.000913342 -0.0008513 0.00552843)
(-0.000934796 -0.00099788 0.00604518)
(-0.000872802 -0.00104058 0.00628009)
(-0.000812426 -0.00104732 0.00641763)
(-0.000719597 -0.00100068 0.00642268)
(-0.000627619 -0.000963475 0.00632038)
(-0.000569449 -0.000942221 0.00596126)
(-0.000460769 -0.00101967 0.00557128)
(-0.000324498 -0.00118673 0.00510379)
(-0.000182162 -0.00148227 0.00473307)
(-6.39195e-05 -0.00182133 0.00464475)
(-6.94705e-05 -0.00211017 0.00442918)
(-2.08619e-05 -0.0023306 0.00418855)
(-3.2284e-05 -0.00250925 0.00391191)
(-9.12053e-05 -0.00270033 0.00377359)
(-0.000134667 -0.00275269 0.00346627)
(-0.000187461 -0.00274931 0.00322062)
(-0.000318873 -0.00255912 0.00289137)
(-0.000386283 -0.00234832 0.00261269)
(-0.00043511 -0.00206115 0.0022815)
(-0.000458813 -0.00175499 0.00199381)
(-0.000449617 -0.00146885 0.00170677)
(-0.000405564 -0.0012208 0.00146604)
(-0.000182059 -0.000494081 0.000578258)
(-0.000166395 -0.000362913 0.000432513)
(-0.000386652 -0.000998765 0.00125233)
(-0.000593628 -0.00176862 0.00223787)
(-0.000478106 -0.00140834 0.00183269)
(-0.000150854 -0.000488851 0.000614457)
(-0.000147553 -0.000412681 0.000481321)
(-0.000132151 -0.000538755 0.000644407)
(-0.000120591 -0.000465467 0.000524449)
(-0.000105837 -0.000372128 0.000422251)
(-8.55704e-05 -0.00047939 0.000494507)
(-0.000100175 -0.000619839 0.000622268)
(-5.02692e-05 -0.000512628 0.000516677)
(-3.55689e-05 -0.000370085 0.000347803)
(-1.40301e-05 -0.000479834 0.000426971)
(1.53732e-05 -0.000594536 0.000528234)
(5.03289e-05 -0.000450973 0.000389799)
(3.18896e-05 -0.000299639 0.00025712)
(7.19897e-05 -0.000333878 0.000321698)
(6.33443e-05 -0.000223264 0.000207273)
(4.26265e-05 -0.000139055 0.000139537)
(6.05709e-05 -0.000122288 0.00015811)
(4.14813e-05 -7.08389e-05 8.5693e-05)
(1.38131e-05 -3.16784e-05 6.53074e-05)
(2.10787e-05 9.09435e-06 7.35276e-05)
(6.78333e-06 3.59263e-05 2.79759e-05)
(-1.19603e-05 4.33298e-05 2.00853e-05)
(-2.12899e-05 8.57466e-05 1.31554e-05)
(-2.02931e-05 8.2903e-05 -1.05753e-05)
(-4.15798e-05 0.000139783 -2.39974e-05)
(-3.81503e-05 0.000119431 -1.89539e-05)
(-5.24717e-05 0.00015488 -2.79612e-05)
(-3.89156e-05 0.000126747 -3.44598e-05)
(-5.27647e-05 0.00016978 -4.72605e-05)
(-3.74169e-05 0.000136558 -3.57689e-05)
(-4.47022e-05 0.000168508 -4.28421e-05)
(-5.40936e-05 0.000204547 -5.24131e-05)
(-3.21304e-05 0.000147854 -5.01792e-05)
(-2.06806e-05 0.000109501 -3.39749e-05)
(-3.12127e-05 0.000133604 -5.09365e-05)
(-2.47933e-05 0.000147394 -6.02657e-05)
(-2.31274e-05 0.000159743 -6.1657e-05)
(-2.13424e-05 0.00017178 -6.48655e-05)
(-1.74853e-05 0.000175551 -6.32605e-05)
(-1.49499e-05 0.000175419 -5.98071e-05)
(-7.94693e-06 0.000171649 -5.14683e-05)
(-6.95157e-06 0.000164611 -4.2243e-05)
(-4.49219e-06 0.000153773 -3.03924e-05)
(-4.21029e-06 0.000135997 -2.12209e-05)
(-8.99598e-07 0.000108097 -1.33499e-05)
(-2.29997e-06 0.000149597 -1.41717e-05)
(-1.53032e-06 0.000197095 -4.99685e-06)
(1.51434e-06 0.000168252 -8.94939e-07)
(-1.00648e-06 0.000135754 2.85954e-06)
(2.56158e-06 9.72022e-05 3.17739e-06)
(-4.02953e-06 0.000117344 8.81329e-06)
(-7.98516e-06 0.000135036 3.41941e-05)
(-3.26331e-06 9.10286e-05 2.79505e-05)
(-2.26247e-05 0.000100399 4.21847e-05)
(-3.1129e-05 0.000100115 5.50257e-05)
(-4.99695e-05 0.000101436 0.000107744)
(-3.08368e-05 5.86801e-05 8.85093e-05)
(-6.88798e-05 5.86639e-05 0.000135263)
(-7.34012e-05 5.99818e-05 0.000150404)
(-0.000103851 4.8274e-05 0.000259316)
(-8.05355e-05 2.08173e-05 0.000222324)
(-4.56817e-05 7.71202e-06 0.000186984)
(-8.78874e-05 -1.09686e-05 0.000274258)
(-9.28242e-05 2.28406e-06 0.00028227)
(-0.000106213 -3.70648e-05 0.000432276)