/*--------------------------------*- C++ -*----------------------------------*\
| =========                 |                                                 |
| \\      /  F ield         | OpenFOAM: The Open Source CFD Toolbox           |
|  \\    /   O peration     | Version:  5.0                                   |
|   \\  /    A nd           | Web:      www.OpenFOAM.org                      |
|    \\/     M anipulation  |                                                 |
\*---------------------------------------------------------------------------*/
FoamFile
{
    version     2.0;
    format      ascii;
    class       volVectorField;
    location    "60";
    object      wallShearStressRest;
}
// * * * * * * * * * * * * * * * * * * * * * * * * * * * * * * * * * * * * * //

dimensions      [1 -1 -2 0 0 0 0];

internalField   uniform (0 0 0);

boundaryField
{
    Wall_Aorta
    {
        type            calculated;
        value           nonuniform List<vector> 
7641
(
(0.000174334 -0.000977578 -0.00446966)
(9.43169e-05 -0.000708957 -0.0046877)
(0.000327685 -0.000788475 -0.00484357)
(-3.42678e-05 -0.000725532 -0.00454149)
(0.00017414 -0.000604348 -0.00460332)
(0.00015529 -0.000789431 -0.00466017)
(0.000419372 -0.00069709 -0.0047466)
(0.00130159 -0.00271723 -0.00463243)
(0.0011794 -0.00206205 -0.00486965)
(0.00168469 -0.00323515 -0.00500249)
(0.00156767 -0.00230362 -0.00516169)
(0.000456346 -0.00108596 -0.00451319)
(0.00068313 -0.00118847 -0.0047447)
(0.00058935 -0.000878214 -0.00504871)
(0.000939368 -0.000961602 -0.00528923)
(0.00042482 -0.000850898 -0.00472742)
(0.000733409 -0.000723771 -0.00484207)
(0.000693694 -0.000981261 -0.00497299)
(0.00106058 -0.000874998 -0.00500495)
(0.000884949 -0.00160502 -0.00483618)
(0.00126858 -0.00117862 -0.00461372)
(0.00109424 -0.00132533 -0.00502149)
(0.000545297 -0.00183156 -0.00487584)
(0.00142301 -0.00145039 -0.00483522)
(0.00142519 -0.00167395 -0.00544145)
(0.00120153 -0.00154249 -0.0051911)
(0.00179803 -0.00112665 -0.00539257)
(0.00101851 -0.00108206 -0.00540739)
(0.00135596 -0.000678394 -0.00542197)
(0.00157598 -0.00140218 -0.00580065)
(0.00131679 -0.000772214 -0.00572058)
(0.00166928 -0.000711811 -0.00559703)
(0.000483883 -0.00126389 -0.00526241)
(0.00122528 -0.00115982 -0.00530335)
(0.0013098 -0.00123554 -0.00577129)
(6.9138e-05 -0.000570037 -0.00482723)
(0.000253226 -0.000493865 -0.00488152)
(0.000155309 -0.000544257 -0.00488891)
(0.000283987 -0.000616069 -0.00500472)
(0.000497561 -0.000525688 -0.00505727)
(0.000371755 -0.00056663 -0.00498495)
(8.84905e-05 -0.000334198 -0.00487229)
(0.000231307 -0.000213669 -0.00477472)
(0.000274375 -0.000320308 -0.00493851)
(0.000458196 -0.000210354 -0.0049086)
(0.000565823 -0.000691107 -0.00516628)
(0.000760179 -0.000507731 -0.00511878)
(0.000621132 -0.000581833 -0.00517716)
(0.000234721 -0.000911346 -0.00530994)
(0.000834162 -0.000820252 -0.00530511)
(0.000962528 -0.000844218 -0.00593356)
(0.000915551 -0.00063055 -0.00528251)
(0.000548154 -0.000352537 -0.00506709)
(0.00075164 -0.000192236 -0.00500825)
(0.000183465 -0.000452125 -0.00506925)
(0.000765409 -0.000459036 -0.00514241)
(0.000928354 -0.000413709 -0.00575521)
(0.00122112 -0.000963159 -0.00569383)
(0.000985148 -0.000356284 -0.00551061)
(0.00130172 -0.000266896 -0.00538955)
(0.00148192 -0.000810392 -0.0056479)
(0.0012938 -0.000486795 -0.00570907)
(0.00166139 -0.000275888 -0.00555056)
(0.00126318 -0.0157018 0.0274398)
(0.0128978 -0.0106566 0.0296274)
(0.0110688 -0.0115728 0.03222)
(-0.00322762 -0.0127302 0.0244675)
(-0.00703147 -0.0190315 0.032661)
(0.0105939 -0.01226 0.0297002)
(0.00305881 -0.0139524 0.031723)
(-0.00152527 -0.00906074 0.0164804)
(-0.00184195 -0.00848165 0.016494)
(-0.00436664 -0.0101284 0.0163543)
(-0.00179629 -0.00990978 0.0190237)
(-0.00270818 -0.0092606 0.0185001)
(-0.00496001 -0.0109386 0.0196068)
(-0.00157234 -0.00977046 0.0211728)
(-0.00342375 -0.0131171 0.0238524)
(-0.00346228 -0.00827787 0.0178084)
(-0.00362176 -0.00834273 0.0194908)
(-0.00279047 -0.00775964 0.0159328)
(-0.00286699 -0.00682062 0.0157764)
(-0.00297646 -0.00749407 0.0170187)
(-0.00322639 -0.00761504 0.0183754)
(-0.00310913 -0.0067099 0.0166385)
(-0.00325778 -0.00675304 0.0180973)
(-0.000696674 -0.0103654 0.0236666)
(-0.00230465 -0.0139119 0.0289274)
(0.000609065 -0.0134108 0.0274387)
(-0.00184997 -0.0221503 0.0364708)
(-0.00372653 -0.00851734 0.0206445)
(-0.00410219 -0.00905009 0.0222261)
(-0.00094296 -0.0115148 0.0312457)
(0.00913856 -0.0143076 0.0361293)
(0.00193563 -0.0132968 0.0428768)
(0.0066554 -0.0123596 0.0208827)
(0.00389987 -0.015427 0.0273903)
(-0.0039361 -0.00792078 0.0240336)
(-0.00951942 -0.0125444 0.0290996)
(-0.00342889 -0.00745405 0.0192791)
(-0.00361276 -0.00762606 0.020678)
(-0.00341589 -0.00644265 0.0190417)
(-0.00337133 -0.00639294 0.020487)
(-0.0035761 -0.00726335 0.0217692)
(-0.00367797 -0.00874705 0.0228356)
(-0.00362492 -0.00601283 0.0210262)
(-0.00392371 -0.00601151 0.0215819)
(-0.00115484 -0.00475431 0.015322)
(-0.00279612 -0.00341248 0.0143051)
(-0.0038279 -0.00452988 0.014039)
(-0.00285999 -0.00602981 0.0138343)
(-0.00248716 -0.00624961 0.0158831)
(-0.00301817 -0.00505611 0.0144931)
(-0.0013204 -0.0043232 0.0164274)
(-0.00397535 -0.00487299 0.0152914)
(-0.00104564 -0.0044705 0.0176217)
(-0.00383077 -0.00468611 0.0166567)
(-0.0023611 -0.00593317 0.0169684)
(-0.00227483 -0.00608925 0.0183889)
(-0.00138268 -0.00277606 0.0127862)
(-0.00401394 -0.0041247 0.0133939)
(-0.00310075 -0.00308324 0.0146703)
(-0.00341692 -0.00149809 0.012901)
(-0.00328933 -0.0020791 0.0141926)
(-0.00301581 -0.0030288 0.0160978)
(-0.00284404 -0.00351201 0.0170728)
(-0.00363409 -0.00241778 0.0152906)
(-0.00352202 -0.00240724 0.0159801)
(0.000360162 -0.00426934 0.0181045)
(-0.00321614 -0.00435646 0.0184881)
(-0.00391113 -0.00524994 0.0176794)
(-0.00278121 -0.00546991 0.0193763)
(-0.00312874 -0.00535876 0.0186442)
(-0.00307671 -0.00544544 0.0199857)
(-0.00316472 -0.0056419 0.0197704)
(-0.0033183 -0.00541992 0.0207726)
(-0.00361362 -0.00350665 0.020206)
(-0.00362555 -0.00350426 0.0198636)
(-0.00329276 -0.0033123 0.0176838)
(-0.000660166 -0.00301696 0.0175004)
(-0.00401503 -0.00351583 0.019337)
(-0.0037761 -0.00234387 0.0170951)
(-0.00370509 -0.00240059 0.0168449)
(9.64327e-05 -0.00309635 0.0171821)
(-0.00327786 -0.00304906 0.0179776)
(-0.00373279 -0.00355511 0.0190597)
(-0.00407941 -0.00215131 0.0168859)
(-0.000698468 -0.00136325 0.0168405)
(-0.00378626 -0.00265756 0.0167531)
(-0.00414429 -0.00300582 0.0177913)
(-0.00295597 -0.00383996 0.0197681)
(0.0037598 -0.0150608 0.025611)
(0.00301906 -0.0194478 0.0300729)
(-0.00295033 -0.0153538 0.0327959)
(-0.0017959 -0.0111019 0.0269463)
(-0.00329839 -0.0122716 0.0303407)
(-0.000339565 -0.0153842 0.0301683)
(-0.00441374 -0.00753468 0.0238618)
(0.00126568 -0.00797164 0.0255056)
(-0.0025778 -0.00856078 0.0264694)
(-0.000679167 -0.011829 0.03011)
(0.0127859 -0.0146861 0.0262293)
(0.0106111 -0.0144232 0.0292233)
(-0.00551705 -0.0108922 0.0308624)
(0.00338215 -0.0117677 0.0259934)
(0.00392589 -0.0172445 0.025293)
(0.00433119 -0.0268034 0.0322606)
(0.00972232 -0.0190847 0.0283511)
(-0.00342595 -0.00607148 0.0217186)
(-0.00241509 -0.00622083 0.0226751)
(-0.00439738 -0.0061712 0.0226165)
(-0.00382151 -0.00463047 0.0214477)
(-0.00252933 -0.0049757 0.0221046)
(-0.0048467 -0.0055739 0.0223183)
(-0.00293878 -0.00809268 0.0241391)
(-0.00405997 -0.00787996 0.0256498)
(-0.00373716 -0.00729784 0.0247416)
(-0.00408887 -0.00577204 0.0231344)
(-0.00363776 -0.00333877 0.0186336)
(-0.00408728 -0.00423317 0.0200072)
(-0.00403149 -0.0033755 0.0184759)
(-0.00432784 -0.00263314 0.0188485)
(-0.000823259 -0.00495466 0.0210591)
(-0.00466036 -0.00567928 0.0216894)
(-0.00438839 -0.00628671 0.0235104)
(-0.00429287 -0.00625641 0.0224557)
(-0.00527206 -0.00306988 0.0178284)
(-0.00211785 -0.00390999 0.0190213)
(-0.005273 -0.00505279 0.0188559)
(-0.00567104 -0.00528133 0.0207377)
(-0.0053731 -0.0092932 0.0268946)
(0.00442909 -0.0145004 0.0329557)
(-0.00576654 -0.0197231 0.0365955)
(0.00787819 -0.018873 0.0373701)
(-0.00425458 -0.00766811 0.0232826)
(-0.00249552 -0.00884906 0.0237237)
(-0.00402107 -0.00941464 0.026142)
(-0.00487765 -0.00543144 0.0201824)
(-0.00506658 -0.00644623 0.0209031)
(-0.00460298 -0.00553051 0.0192177)
(-0.0046573 -0.00461771 0.0180264)
(-0.000220357 -0.00679935 0.0209917)
(-0.00477706 -0.00766096 0.0214998)
(-0.00333358 -0.00964427 0.0258435)
(-0.00548679 -0.00478564 0.015975)
(-0.00102112 -0.00483775 0.0167083)
(-0.00496893 -0.00622833 0.0167567)
(-0.00508418 -0.00712685 0.0201527)
(0.0126454 -0.0171739 0.0286561)
(0.0111091 -0.0152013 0.0299074)
(-0.00312634 -0.0120393 0.0317218)
(0.00453631 -0.0148176 0.0263125)
(-0.00371495 -0.00844175 0.023097)
(0.00750061 -0.00790584 -0.00862023)
(0.0076731 -0.00705314 -0.00804388)
(0.0153345 0.000672236 -0.0100899)
(0.0137557 -0.00206488 -0.0106377)
(0.0139514 -0.00112105 -0.00844099)
(0.0119519 -0.00488765 -0.0102817)
(0.0138659 -0.00398648 -0.00757344)
(0.00615049 -0.00534685 -0.00746772)
(0.00709046 -0.00441495 -0.00700094)
(0.00791176 -0.0043441 -0.00714217)
(0.00899102 -0.00523318 -0.00851807)
(0.00691463 -0.00353803 -0.00819841)
(0.0070553 -0.00278981 -0.00707571)
(0.00811031 -0.00248157 -0.00753129)
(0.0133203 0.000404762 -0.00941928)
(0.0121727 -0.00224723 -0.00991794)
(0.0121231 -0.00113204 -0.00803356)
(0.0116304 0.000280518 -0.00905097)
(0.0106886 -0.00176484 -0.0093063)
(0.00976672 -0.00114017 -0.00784663)
(0.0106669 -0.00119869 -0.00766337)
(0.0105942 -0.00435763 -0.00932207)
(0.0124361 -0.00359581 -0.00722647)
(0.00991323 -0.00424475 -0.00914444)
(0.0114862 -0.00320534 -0.00729056)
(0.0099541 -0.00120322 -0.0083938)
(0.00767516 -0.00279607 -0.0086851)
(0.00873691 -0.00111759 -0.00729708)
(0.00877923 -0.00143435 -0.00882008)
(0.009834 0.000184046 -0.00726508)
(0.00740923 -0.000618522 -0.0082275)
(0.00864854 0.000222781 -0.00700311)
(0.00876913 -0.00333041 -0.00764786)
(0.00864191 -0.00255436 -0.00767842)
(0.00904842 -0.00309501 -0.00785864)
(0.0021939 -0.00351597 -0.00545377)
(0.00151785 -0.00226972 -0.00539294)
(0.00213369 -0.00171018 -0.00498584)
(0.00266111 -0.00393869 -0.00581075)
(0.00190072 -0.00238577 -0.00566096)
(0.00245938 -0.00170418 -0.00522214)
(0.00383374 -0.00530686 -0.00646573)
(0.0041885 -0.00550722 -0.00647576)
(0.00324274 -0.00325869 -0.00619225)
(0.0015442 -0.00260565 -0.00582465)
(0.00270191 -0.00201176 -0.00572612)
(0.0028736 -0.00226369 -0.00636805)
(0.00299977 -0.00339845 -0.00664157)
(0.00366884 -0.00245106 -0.00599113)
(0.00310768 -0.00258502 -0.00668543)
(0.0019976 -0.00509453 -0.0051423)
(0.00328651 -0.00417193 -0.00545995)
(0.00334247 -0.00491898 -0.00612959)
(0.00168747 -0.00192 -0.00541123)
(0.00165816 -0.00122182 -0.00559501)
(0.00221794 -0.00120695 -0.00552617)
(0.0021589 -0.00188349 -0.00559448)
(0.00142179 -0.00169863 -0.00585813)
(0.00232857 -0.00150531 -0.00585961)
(0.00241005 -0.0015068 -0.00657705)
(0.0019516 -0.00130668 -0.0057133)
(0.00105902 -0.00115959 -0.00586185)
(0.00178755 -0.00102102 -0.00581941)
(0.00196083 -0.00101889 -0.00632127)
(0.00195326 -0.00139952 -0.00601435)
(0.00237187 -0.00083439 -0.0060661)
(0.00212434 -0.0011611 -0.00641697)
(0.0026805 -0.00170355 -0.00661486)
(0.00293361 -0.00149001 -0.00632637)
(0.00231984 -0.00202136 -0.006128)
(0.00294278 -0.00127079 -0.00608524)
(0.00208986 -0.00178346 -0.0064542)
(0.00302236 -0.0016456 -0.00625403)
(0.00326052 -0.0017188 -0.0071754)
(0.00237078 -0.000948758 -0.00645091)
(0.00278599 -0.000847242 -0.00616054)
(0.00246405 -0.000903509 -0.006123)
(0.0020165 -0.00125506 -0.00649853)
(0.00281269 -0.00105826 -0.00637806)
(0.00318704 -0.000799595 -0.00691002)
(0.00236903 -0.000845624 -0.00633985)
(0.0027382 -0.000201339 -0.00610743)
(0.00569696 -0.00690784 -0.0077429)
(0.00494597 -0.00451943 -0.00723138)
(0.00599373 -0.00656439 -0.00749754)
(0.00357799 -0.00458925 -0.0074783)
(0.00460691 -0.00344235 -0.00690319)
(0.004873 -0.0037664 -0.00774481)
(0.00260529 -0.00355412 -0.00669745)
(0.00384528 -0.00259458 -0.00641672)
(0.004006 -0.00293971 -0.0069866)
(0.00312322 -0.00242792 -0.00667815)
(0.00376843 -0.001439 -0.00655963)
(0.00409615 -0.00327471 -0.0073617)
(0.00274824 -0.00206442 -0.00695559)
(0.00375187 -0.00167144 -0.00659728)
(0.00393364 -0.00178415 -0.00741371)
(0.00569015 -0.00497149 -0.00800199)
(0.00623971 -0.00409668 -0.00732117)
(0.00501226 -0.00378853 -0.00784678)
(0.00495407 -0.00504688 -0.00756857)
(0.0061241 -0.00385157 -0.00719916)
(0.00642383 -0.00393191 -0.0073602)
(0.00528313 -0.00334416 -0.00723829)
(0.00407584 -0.0018409 -0.0071822)
(0.00309484 -0.00159222 -0.00612763)
(0.00376257 -0.00072617 -0.00626108)
(0.00417937 -0.000557379 -0.00635423)
(0.00400316 -0.002097 -0.0072494)
(0.00450859 -0.00159931 -0.00687344)
(0.00350198 -0.00232618 -0.00699337)
(0.0044382 -0.00159586 -0.00642286)
(0.00494641 -0.00153666 -0.00687955)
(0.00345976 -0.00178972 -0.00708121)
(0.00227142 -0.00112636 -0.00669154)
(0.00317046 -0.00111758 -0.00673056)
(0.00350557 -0.000971705 -0.00709178)
(0.00310227 -0.00140904 -0.00657248)
(0.00371303 -0.000653097 -0.00659137)
(0.00380481 -0.00127546 -0.00737045)
(0.00331174 -0.00118373 -0.00701953)
(0.00208744 -0.000477913 -0.00655817)
(0.00291104 -0.0004378 -0.00619946)
(0.00331997 -0.000240492 -0.00685343)
(0.00263948 -0.00070088 -0.00687087)
(0.00329836 -0.000587423 -0.0067901)
(0.0038594 -0.000511731 -0.00739971)
(0.00265981 -0.000951887 -0.00657012)
(0.00382949 -0.000884347 -0.00647055)
(0.00397876 -0.000644981 -0.00689034)
(0.00363521 -0.000908163 -0.00690334)
(0.00412107 -0.000176175 -0.00704077)
(0.0041879 -0.00116676 -0.00708791)
(0.00337214 -0.000613553 -0.00694564)
(0.00420861 -0.000532835 -0.00674365)
(0.00480999 -0.000188815 -0.00724103)
(0.0017428 -0.000827827 -0.00578691)
(0.000930186 -0.000563311 -0.00569221)
(0.00170917 -0.000529566 -0.00578716)
(0.00192768 -0.000389765 -0.00619476)
(0.00174444 -0.000462651 -0.00601452)
(0.00218069 -0.000354222 -0.00592761)
(0.00140787 -0.000680131 -0.0060154)
(0.00231013 -0.000549391 -0.00598482)
(0.00252002 -0.000379493 -0.00644779)
(0.0067221 -0.00259314 -0.00787339)
(0.00503772 -0.00130951 -0.00738405)
(0.00511923 -0.000559373 -0.00641374)
(0.00637491 -0.000644824 -0.00699936)
(0.00565713 -0.00434378 -0.00759536)
(0.00652861 -0.00224061 -0.00654185)
(0.00440526 -0.00251061 -0.00703366)
(0.00517616 -0.00196544 -0.00648721)
(0.0060033 -0.00196582 -0.00668185)
(0.00391147 -0.00178351 -0.00672622)
(0.00420883 -0.000518209 -0.0060929)
(0.00488157 -0.000478805 -0.00608483)
(0.00439853 -0.00102099 -0.00680943)
(0.00524293 -0.000937214 -0.00726807)
(0.00445961 -0.00037521 -0.00649743)
(0.00495075 -0.000434415 -0.00654516)
(0.0060238 3.84168e-05 -0.0071951)
(0.00662049 -0.0012903 -0.00725414)
(0.00675271 -0.000807773 -0.00721548)
(0.00806504 -0.000868724 -0.00754942)
(0.00583882 -0.00118037 -0.00782542)
(0.0068949 0.000527219 -0.00707735)
(0.00690573 -0.000316574 -0.00834357)
(0.00663713 0.000196484 -0.00706358)
(0.00796176 8.15954e-05 -0.00695599)
(0.00534484 -8.13459e-05 -0.00687907)
(0.00562412 -0.000159426 -0.00689278)
(0.00654711 -1.9163e-06 -0.00716314)
(0.00379247 -0.000541691 -0.00649939)
(0.00454909 -0.000591841 -0.00673155)
(0.00525732 -0.000158758 -0.00696484)
(0.00179221 0.00450208 -0.00165238)
(0.00231033 0.00433012 -0.00133409)
(0.00186868 0.0039523 -0.00166373)
(0.00256561 0.00466471 -0.00152862)
(0.00196363 0.00473217 -0.00174026)
(0.0026835 0.00453823 -0.00143079)
(0.00223573 0.00420418 -0.00212978)
(0.0026496 0.00542674 -0.00192179)
(0.00290048 0.00483964 -0.00177908)
(0.00174346 0.00546878 -0.00189068)
(0.00276934 0.00521599 -0.00188233)
(0.00236855 0.00508986 -0.00225822)
(0.00289796 0.00562848 -0.00187306)
(0.00224101 0.00492833 -0.00185553)
(0.00327237 0.00462005 -0.00184358)
(0.0026587 0.00445176 -0.00192242)
(0.00252661 0.00495867 -0.00212773)
(0.00350316 0.00480424 -0.00187481)
(0.00208604 0.00549168 -0.00223849)
(0.00316583 0.00546506 -0.00180637)
(0.00298758 0.00575413 -0.00218864)
(0.00279948 0.00582108 -0.00229851)
(0.0019538 0.00572297 -0.00213918)
(0.00322515 0.00537834 -0.00215277)
(0.00269652 0.00532211 -0.00266155)
(0.0027392 0.00503736 -0.00200989)
(0.00373727 0.00533928 -0.00172545)
(0.00338303 0.00609695 -0.00216573)
(0.00272779 0.00571654 -0.00206213)
(0.00407613 0.00551431 -0.00205553)
(0.00331695 0.00532423 -0.00248319)
(0.00281413 0.00589409 -0.00219849)
(0.00230248 0.00591869 -0.00233197)
(0.00342078 0.00552635 -0.00216158)
(0.00273945 0.00685168 -0.00231036)
(0.0022206 0.00602854 -0.0024207)
(0.00344554 0.0057727 -0.00237336)
(0.0033363 0.00626409 -0.0022531)
(0.00319729 0.00581704 -0.0022973)
(0.00448997 0.00576328 -0.00204827)
(0.00336452 0.00655955 -0.00231013)
(0.00324115 0.00607359 -0.00231678)
(0.00467408 0.0060812 -0.00220808)
(0.00286351 0.00712441 -0.00253558)
(0.00227489 0.00619119 -0.00252837)
(0.0035227 0.00597138 -0.00247268)
(0.00292667 0.00751006 -0.00271019)
(0.00225206 0.00641767 -0.00265074)
(0.00354807 0.00617171 -0.00261598)
(0.00348176 0.00684953 -0.00239108)
(0.0032926 0.00628456 -0.00235852)
(0.00482991 0.00630769 -0.00228338)
(0.00349381 0.00714462 -0.00250193)
(0.00331357 0.00650583 -0.00245976)
(0.00491334 0.00650856 -0.00239306)
(0.00293287 0.00782763 -0.00291362)
(0.00219413 0.00660948 -0.00277192)
(0.00356529 0.00637238 -0.00276716)
(0.00287432 0.00823188 -0.00319954)
(0.0021093 0.00685353 -0.00296227)
(0.00357772 0.00657303 -0.00293986)
(0.0035622 0.00744725 -0.00258222)
(0.00335295 0.00672089 -0.00250648)
(0.00496182 0.00667883 -0.00245129)
(0.00364332 0.00778148 -0.0026883)
(0.0033392 0.00695829 -0.00257695)
(0.00496663 0.00681941 -0.00253616)
(0.00290567 0.00770931 -0.00339615)
(0.00214363 0.00716911 -0.00314173)
(0.00372103 0.00688819 -0.00315162)
(0.00267121 0.0077144 -0.00325899)
(0.00211403 0.00717735 -0.00316842)
(0.00387635 0.00724307 -0.00339271)
(0.0037598 0.00816991 -0.00277723)
(0.00336599 0.00719573 -0.00261559)
(0.00497123 0.0069974 -0.0026959)
(0.00397857 0.00853506 -0.0028971)
(0.00338061 0.00751278 -0.00272651)
(0.00503471 0.0071415 -0.00246118)
(0.00412482 0.00760264 -0.0028534)
(0.00255624 0.00786841 -0.00337427)
(0.0021119 0.00727497 -0.00323494)
(0.00419575 0.00752007 -0.00317872)
(0.00307702 0.00762403 -0.00355732)
(0.00149986 0.00760976 -0.00353158)
(0.00348119 0.00795868 -0.00402533)
(0.00360529 0.00904226 -0.00322494)
(0.00306846 0.00877616 -0.00304897)
(0.00486052 0.0083089 -0.00347763)
(0.0034663 0.00849827 -0.00340227)
(0.00489791 0.00824607 -0.00290679)
(0.00395556 0.00858449 -0.00329117)
(0.00154767 0.00753197 -0.00354491)
(0.00352017 0.00780659 -0.0035261)
(0.0023259 0.00794039 -0.00395324)
(0.00258164 0.0093064 -0.00345086)
(0.00450997 0.00928242 -0.00401201)
(0.00290669 0.00926718 -0.00359322)
(0.00290114 0.00900435 -0.00376043)
(0.0043516 0.00901624 -0.0033867)
(0.00328958 0.00925206 -0.00376685)
(0.00210093 0.00905358 -0.00405117)
(0.00399506 0.00971027 -0.00404042)
(0.00261215 0.00951112 -0.00401431)
(-0.00253414 -0.00316161 0.010576)
(-0.00564329 -0.00481281 0.0135341)
(-0.00133317 -0.0030484 0.010063)
(-0.00468483 -0.00407827 0.0105811)
(-0.00551406 -0.00392984 0.012924)
(-0.00241418 -0.0025434 0.00742252)
(-0.00223103 -0.00118769 0.00606094)
(-0.000405271 -0.00131995 0.00578149)
(-0.00290554 -0.00208993 0.00599238)
(-0.00415819 -0.00311217 0.00714862)
(-0.000217565 -0.000109862 0.00332601)
(-0.00253721 -0.000936944 0.0041597)
(0.000579615 0.000107221 0.00255776)
(-0.00108355 -0.000601801 0.00275891)
(-0.00205343 -0.000360122 0.00329815)
(0.000155061 0.00039937 0.0017365)
(0.00040974 0.000937523 0.00107046)
(-0.000547802 -0.000538325 0.00284568)
(0.000824252 -8.91878e-05 0.00283998)
(-0.0013381 -0.00097457 0.00323589)
(-0.00216238 -0.00142253 0.00357617)
(0.00106988 0.00105346 0.00104348)
(2.64828e-05 0.000747044 0.00101783)
(-0.000685438 4.44667e-05 0.000693907)
(0.000711399 0.000540073 0.00103117)
(-0.00386687 -0.00463101 0.0119449)
(-0.000616007 -0.00366881 0.0125301)
(-0.00433237 -0.00425477 0.013672)
(-0.00329912 -0.00899754 0.0189699)
(-0.00218706 -0.00245866 0.00695997)
(0.0014216 0.000676064 0.00129163)
(-9.79341e-05 0.000247088 0.00156923)
(-0.000841615 -0.000296419 0.00124391)
(-0.0039812 -0.00690295 0.0173191)
(-0.000750129 -0.00974079 0.0141539)
(-0.000486571 -0.0184066 0.0206004)
(0.00402772 -0.0149314 0.0191913)
(-0.000548055 -0.00186265 0.00714908)
(-0.0037578 -0.00242217 0.00815728)
(-0.00397053 -0.00409336 0.00923283)
(-0.00371328 -0.0039945 0.0107825)
(-0.00223641 -0.00530205 0.0141102)
(-0.00533843 -0.00610042 0.0146844)
(0.000430757 -0.0142488 0.0231211)
(0.00037996 -0.0119125 0.0157788)
(9.896e-05 -0.0188221 0.0218451)
(0.00327999 -0.0149651 0.0206371)
(-0.000925377 -0.00108543 0.00378954)
(-3.79546e-06 -0.000696729 0.00427244)
(-0.00237493 -0.0015034 0.00444446)
(-0.00297001 -0.00217262 0.00468845)
(0.000654199 -8.23316e-05 0.00197814)
(-0.000718315 -0.000135793 0.0022007)
(-0.00159449 -0.00256057 0.00604689)
(-0.00355277 -0.00229378 0.00702274)
(-0.000389527 -0.000756932 0.0041249)
(-3.50435e-05 -0.000471874 0.0047446)
(-0.00175303 -0.000280952 0.0051873)
(-0.00258637 -0.00206144 0.00574546)
(-0.00204831 -0.00426878 0.0118525)
(-0.00566838 -0.0056808 0.0149779)
(0.00121116 0.00216495 0.000249058)
(0.000182186 0.00134911 0.000346479)
(0.00151735 0.00196552 -0.000190388)
(0.000955514 0.00172616 7.84562e-06)
(0.000422209 0.00156769 -0.000134652)
(0.00130935 0.00302398 -0.00060452)
(0.00123555 0.00290664 -0.000429642)
(0.000865055 0.00260534 -0.000946585)
(0.00169688 0.00269881 -0.000913922)
(0.00177045 0.00258073 -0.0006548)
(0.00150346 0.00245927 -0.00056392)
(0.00109333 0.00189747 -0.00121634)
(0.00139557 0.00166698 -0.000119719)
(0.00175644 0.00162578 -0.000170131)
(0.00103214 0.00125673 9.47564e-06)
(0.000552354 0.000924578 -0.000303782)
(0.0019012 0.00222737 -0.000840542)
(0.00189745 0.00334816 -0.00087693)
(0.00173068 0.00340795 -0.00125249)
(0.00188964 0.00307259 -0.000921832)
(0.00142218 0.00280137 -0.00127084)
(0.0020359 0.00399107 -0.00129684)
(0.00222747 0.00359244 -0.00121299)
(0.00222397 0.00321507 -0.00125792)
(0.0021723 0.00297726 -0.0011753)
(0.00208883 0.00275401 -0.000923328)
(0.00167711 0.00245953 -0.001401)
(0.00183751 0.0037373 -0.00135353)
(0.00231651 0.00349262 -0.00133581)
(0.00188301 0.00319584 -0.00181797)
(0.00259625 0.00366865 -0.00141527)
(0.00154652 0.00116775 -2.02029e-05)
(0.00168669 0.00120937 0.000209495)
(0.000957098 0.00117807 0.000132514)
(0.000442872 0.000507199 -2.48592e-05)
(0.0019128 0.00209899 -0.00057457)
(0.00158104 0.00198956 -0.000409215)
(0.00118653 0.0014839 -0.00123673)
(0.00195697 0.00187731 -0.000579377)
(0.00152486 0.00156152 -0.000237933)
(0.00226555 0.00338419 -0.00135358)
(0.00265627 0.00308177 -0.00128838)
(0.0021426 0.00284565 -0.00174713)
(0.00239647 0.00275177 -0.00110643)
(0.00225115 0.00251741 -0.000885512)
(0.00239587 0.00256623 -0.000943954)
(0.00186011 0.00209623 -0.00123653)
(0.00252282 0.00319934 -0.00127952)
(0.00281079 0.00281973 -0.00101366)
(0.00245629 0.00248337 -0.00072359)
(0.00220589 0.00200709 -0.000720777)
(0.00168946 0.0018182 -0.00085983)
(0.00267544 0.00275718 -0.00125166)
(0.00266438 0.0022919 -0.000784743)
(0.00193515 0.000862001 0.00072588)
(0.000449196 0.000371464 0.00139262)
(-0.00010138 0.000123771 0.00103904)
(0.00100226 0.000237565 0.00191713)
(-0.00010538 0.000132587 0.00225856)
(0.00185492 0.00157525 -5.98937e-05)
(0.00201979 0.00151548 0.000356881)
(0.00149759 0.00152249 0.000369274)
(0.000868938 0.000835636 -0.000263112)
(0.00226695 0.00206004 -0.000535864)
(0.00226726 0.00177303 -0.000480566)
(0.00268066 0.00246661 -0.000992765)
(0.00267514 0.00197973 -0.000522813)
(0.00378916 -0.0115026 0.0153095)
(-0.00112168 -0.0152379 0.018752)
(0.000460417 -0.0013626 0.00729982)
(-0.00215758 -0.00138874 0.00803917)
(-0.00285402 -0.00437513 0.0102749)
(0.000403182 -0.00267534 0.011216)
(-0.00135806 -0.0010949 0.0115261)
(-0.000503084 -0.0103007 0.0185484)
(0.00198141 0.00143027 0.000978559)
(0.0012007 0.00123736 0.0012124)
(0.000471857 0.000631591 0.000860267)
(0.00055842 -0.000144352 0.00331802)
(-0.000621896 -0.000288064 0.00345195)
(-4.98573e-05 -0.000346493 0.00493218)
(-0.000445744 0.000652524 0.0046868)
(0.00179229 0.001106 0.00186129)
(0.000916617 0.000989091 0.00228119)
(8.08369e-05 0.000390666 0.00212012)
(0.000469815 0.000667561 0.00322159)
(0.00238732 0.00173764 -8.66915e-05)
(0.00209271 0.00143234 -8.07872e-06)
(0.00280453 0.00220614 -0.000718727)
(0.00266229 0.00174038 -0.000208536)
(0.00216194 0.00150118 0.000441262)
(0.00193162 0.00134462 0.000639278)
(0.002835 0.00203438 -0.000243771)
(0.00255693 0.00143036 -3.47434e-05)
(0.00242778 0.00126879 0.00123259)
(0.00162321 0.000951027 0.00148896)
(0.00104034 0.000955763 0.00150665)
(0.00255625 0.001698 9.02961e-05)
(0.00250408 0.00138094 0.000308432)
(0.0107231 -0.0187416 0.0199083)
(0.00345405 -0.0148801 0.0241581)
(0.000860445 -0.00528505 0.0102195)
(-0.00245171 -0.00661041 0.0122521)
(-0.00119632 -0.00864123 0.0169121)
(0.00618709 -0.0109391 0.0173177)
(0.00287166 -0.0161022 0.0157303)
(0.000584557 -0.0162448 0.0148915)
(-0.000248658 0.000179552 0.00612816)
(-0.00190657 -0.000154422 0.00747296)
(-0.00231794 -0.000386767 0.00927039)
(0.000943493 0.000594308 0.0033838)
(0.000538729 0.000663026 0.00373301)
(0.00174771 0.000114337 0.00515103)
(0.000214344 -2.47437e-05 0.00574144)
(-0.000214884 3.83623e-06 0.00712812)
(0.0012352 -0.000163186 0.010106)
(-0.00310727 -0.000891462 0.0121788)
(-0.000715951 0.00044138 0.00504937)
(0.00124804 0.000850545 0.0022311)
(0.0018307 0.000934561 0.00216639)
(0.00160316 0.000798145 0.00237602)
(0.00281326 0.00141526 0.000844487)
(0.00208739 0.00096039 0.00106708)
(0.00166476 0.0011907 0.000658107)
(0.0021825 0.00131496 0.00135778)
(0.000702034 0.000344393 0.00406913)
(0.00020084 -0.00694003 0.0144464)
(-0.00157317 -0.0084333 0.0139489)
(0.00040567 0.000327737 0.007311)
(-0.000975531 6.12306e-05 0.0089099)
(0.000943761 0.000272801 0.00383162)
(0.000698582 0.000205583 0.0039541)
(0.00281454 0.000998511 0.00182348)
(0.00168504 0.000565387 0.00215018)
(0.00121266 0.000759714 0.00179774)
(0.00155878 0.000902711 0.00243668)
(0.00107201 -0.0158579 0.0179516)
(0.000823155 -0.0131163 0.0200152)
(-0.00214438 -0.00351585 0.0108933)
(0.00131656 -0.00567095 0.0112112)
(-0.000923562 -0.00593189 0.0108184)
(-0.00115689 -0.00872754 0.0143714)
(0.000807017 -0.0120145 0.0161618)
(-9.66351e-05 -0.000340437 0.00577067)
(0.000685796 0.000101859 0.00595265)
(-0.000770832 -0.000223232 0.00565892)
(0.00231505 0.000487357 0.00272906)
(0.000969358 3.34871e-05 0.00281816)
(0.000825776 0.000287745 0.00297699)
(0.0010445 0.000496527 0.00262215)
(-0.00101816 -0.000381746 0.00698081)
(-0.00013995 -0.00123814 0.00914256)
(0.00114628 8.47419e-05 0.0040588)
(0.00231902 -0.00034915 0.00455508)
(0.00122099 -0.000809603 0.00540904)
(0.00132671 -0.000392077 0.00709104)
(0.00251321 0.00436353 -0.00158236)
(0.00228387 0.00381303 -0.00148634)
(0.00275904 0.00394155 -0.00130844)
(0.00285121 0.00402983 -0.00156072)
(0.00285311 0.0047294 -0.00180755)
(0.00236372 0.00428051 -0.00152007)
(0.00298956 0.00414002 -0.00158468)
(0.00254876 0.00402611 -0.00222921)
(0.00268413 0.00493129 -0.00182013)
(0.00341017 0.0044722 -0.00137526)
(0.00343139 0.00523214 -0.00177917)
(0.00267088 0.00340445 -0.0015124)
(0.00307986 0.00347603 -0.00120912)
(0.00314414 0.0043834 -0.00151119)
(0.00272113 0.00411931 -0.00146606)
(0.00342933 0.00386678 -0.00144127)
(0.002859 0.00367579 -0.00200119)
(0.00319937 0.00367001 -0.00146832)
(0.00284239 0.00322491 -0.00130765)
(0.00322333 0.00312351 -0.0014013)
(0.00274117 0.00289719 -0.00175788)
(0.00291109 0.0032318 -0.00126587)
(0.003205 0.00261844 -0.00127066)
(0.00267494 0.00250068 -0.00152895)
(0.00291118 0.00397334 -0.00147644)
(0.00343815 0.00328824 -0.00141359)
(0.00298418 0.00336913 -0.00141146)
(0.00344846 0.00279075 -0.00135818)
(0.00340947 0.00482497 -0.00167971)
(0.00314955 0.00408961 -0.00147078)
(0.00377639 0.00408816 -0.00148131)
(0.00286658 0.00494968 -0.00177357)
(0.00389395 0.00485462 -0.00176927)
(0.00314921 0.0046017 -0.00220117)
(0.00318449 0.00515182 -0.00161767)
(0.00386763 0.00432203 -0.00151682)
(0.00309376 0.00418486 -0.00150233)
(0.00381158 0.0035588 -0.00109695)
(0.00329951 0.00369346 -0.00157359)
(0.00372127 0.00294922 -0.00101122)
(0.00375943 0.00467839 -0.00150391)
(0.00316424 0.00408608 -0.0014763)
(0.0040147 0.00381647 -0.00149139)
(0.00346949 0.00369113 -0.00200684)
(0.0036274 0.00566944 -0.00202846)
(0.00335634 0.00490846 -0.0017938)
(0.0043142 0.0051496 -0.00175592)
(0.00341432 0.0054467 -0.00169858)
(0.00420612 0.0048109 -0.00126223)
(0.00332552 0.00604126 -0.00190652)
(0.0043895 0.00531786 -0.00186012)
(0.00427224 0.00599569 -0.00187725)
(0.0034999 0.00540812 -0.00167058)
(0.00444135 0.00508525 -0.00167927)
(0.00372496 0.00500593 -0.00199623)
(0.00394965 0.00519003 -0.00162412)
(0.00347804 0.00410771 -0.00141423)
(0.0041614 0.00400341 -0.0014433)
(0.00345434 0.00527913 -0.00152165)
(0.00427147 0.00415883 -0.00149283)
(0.00342733 0.00622975 -0.00200079)
(0.00450383 0.00555061 -0.00196484)
(0.00438704 0.00641658 -0.00191936)
(0.00350111 0.00655603 -0.00209713)
(0.00463186 0.00582483 -0.00205659)
(0.00452061 0.00677308 -0.00189608)
(0.00388678 0.00556468 -0.00187606)
(0.00480382 0.0053474 -0.001654)
(0.00400465 0.00590498 -0.00182283)
(0.00503274 0.00567918 -0.00168992)
(0.00355493 0.00545819 -0.00160251)
(0.00449992 0.00435104 -0.00156737)
(0.00364845 0.00579486 -0.00156912)
(0.00466656 0.00459663 -0.00153684)
(0.00335293 0.00409001 -0.00130565)
(0.00396444 0.00313962 -0.0014084)
(0.00349314 0.00324008 -0.00184367)
(0.00311643 0.00292904 -0.00116207)
(0.00330752 0.00231026 -0.00111575)
(0.00278539 0.00220244 -0.00140135)
(0.00337318 0.00269 -0.000975577)
(0.00314054 0.00210047 -0.000938372)
(0.00286629 0.00200221 -0.00106571)
(0.00318549 0.00305851 -0.00132222)
(0.00357975 0.00244908 -0.00126257)
(0.00342929 0.00281354 -0.0012061)
(0.00374272 0.00214902 -0.00111994)
(0.0032098 0.00203083 -0.000395253)
(0.00327461 0.00204448 -0.000457758)
(0.00307106 0.00135009 -0.00029215)
(0.0037623 0.00262866 -0.000885216)