/*--------------------------------*- C++ -*----------------------------------*\
| =========                 |                                                 |
| \\      /  F ield         | OpenFOAM: The Open Source CFD Toolbox           |
|  \\    /   O peration     | Version:  5.0                                   |
|   \\  /    A nd           | Web:      www.OpenFOAM.org                      |
|    \\/     M anipulation  |                                                 |
\*---------------------------------------------------------------------------*/
FoamFile
{
    version     2.0;
    format      ascii;
    class       volVectorField;
    location    "60";
    object      wallShearStressHyper;
}
// * * * * * * * * * * * * * * * * * * * * * * * * * * * * * * * * * * * * * //

dimensions      [1 -1 -2 0 0 0 0];

internalField   uniform (0 0 0);

boundaryField
{
    Wall_Aorta
    {
        type            calculated;
        value           nonuniform List<vector> 
7641
(
(0.00398544 -0.00963401 -0.00130373)
(0.00304172 -0.00644667 -0.00363488)
(0.00361641 -0.0071306 -0.00349006)
(0.00284939 -0.00741654 -0.00201398)
(0.00433763 -0.00637363 -0.00265974)
(0.00333053 -0.00807289 -0.00183163)
(0.00503337 -0.00713727 -0.00248389)
(0.0100497 -0.0235217 0.00333436)
(0.00878523 -0.0183179 0.00173307)
(0.0114033 -0.0260015 0.00255844)
(0.00991019 -0.019701 0.000742098)
(0.00469602 -0.0104754 -0.00124763)
(0.00521847 -0.0112504 -0.00125901)
(0.00428842 -0.00786955 -0.00347939)
(0.00495967 -0.0085864 -0.00353977)
(0.00391507 -0.00873726 -0.00176151)
(0.00581939 -0.00771457 -0.00234314)
(0.0045971 -0.00957112 -0.00179057)
(0.00654181 -0.00853265 -0.00213188)
(0.0058148 -0.0147007 0.000324695)
(0.00806344 -0.0114955 -8.92019e-05)
(0.00627615 -0.012243 -0.00184023)
(0.0060096 -0.0159564 0.000215512)
(0.00925769 -0.0119704 -0.000828335)
(0.00780483 -0.0149797 -0.00135353)
(0.00598447 -0.0135256 -0.00160879)
(0.00896208 -0.011269 -0.00144058)
(0.00454245 -0.00943772 -0.00339818)
(0.00620589 -0.00721615 -0.00337357)
(0.00703565 -0.0115916 -0.00334361)
(0.00552494 -0.00859172 -0.00371533)
(0.00673365 -0.0076006 -0.00411819)
(0.00495 -0.0109801 -0.00195325)
(0.00740525 -0.00912613 -0.00273947)
(0.0064804 -0.0109905 -0.00360389)
(0.0021696 -0.00513175 -0.00401662)
(0.0032334 -0.00451903 -0.00450954)
(0.00221591 -0.00464713 -0.00529901)
(0.00261414 -0.00564047 -0.00392447)
(0.00370072 -0.00492295 -0.00442783)
(0.00253791 -0.00491695 -0.00522924)
(0.00159158 -0.00340217 -0.00553845)
(0.0024901 -0.00277592 -0.00567889)
(0.00185663 -0.00357395 -0.0053959)
(0.00289432 -0.00298068 -0.0055697)
(0.00328233 -0.00621461 -0.00397491)
(0.00431931 -0.0052357 -0.00424923)
(0.00312682 -0.00519145 -0.00521586)
(0.00313624 -0.0071754 -0.00362815)
(0.00474784 -0.00550965 -0.00426514)
(0.00429859 -0.00716412 -0.00541778)
(0.0036084 -0.00562964 -0.00498484)
(0.00239999 -0.00377869 -0.00538682)
(0.0034846 -0.00311711 -0.00541945)
(0.00200502 -0.00437532 -0.00474577)
(0.003629 -0.00343182 -0.00517911)
(0.00326709 -0.004356 -0.00642036)
(0.00486031 -0.00741784 -0.00492914)
(0.00351728 -0.00466829 -0.005129)
(0.00456228 -0.00411328 -0.00494039)
(0.00525239 -0.00742641 -0.00491618)
(0.00397098 -0.00529506 -0.00542929)
(0.00519777 -0.00415898 -0.00529915)
(0.000752885 -0.0141525 0.0281116)
(0.0126482 -0.00979016 0.029943)
(0.0106126 -0.0107814 0.0326832)
(-0.00410417 -0.0101909 0.0254662)
(-0.00742712 -0.0170899 0.0335588)
(0.0103852 -0.0110052 0.0303253)
(0.00281484 -0.0126004 0.0324512)
(-0.00220284 -0.00436769 0.0174378)
(-0.0035626 -0.00342538 0.0171273)
(-0.00563744 -0.00589361 0.0172592)
(-0.00219319 -0.00597491 0.0201891)
(-0.00376004 -0.00521226 0.0193664)
(-0.00578294 -0.00755284 0.0207559)
(-0.0020577 -0.00575728 0.0224857)
(-0.00411447 -0.0100431 0.0250248)
(-0.00447549 -0.00343612 0.0191596)
(-0.00423935 -0.00340497 0.0210002)
(-0.00420867 -0.00214611 0.0170095)
(-0.00413516 -0.000380902 0.0169406)
(-0.00389878 -0.00191538 0.0184876)
(-0.00384134 -0.00195647 0.0200158)
(-0.00398914 -0.00041031 0.0182552)
(-0.00387857 -0.000304288 0.020031)
(-0.00101009 -0.00664005 0.0251038)
(-0.00268901 -0.0114721 0.0299976)
(0.000457213 -0.0101116 0.0288779)
(-0.00196557 -0.0203344 0.0373248)
(-0.00406546 -0.00369745 0.0224111)
(-0.00417068 -0.00452966 0.0240378)
(-0.000784638 -0.00878675 0.032491)
(0.00905562 -0.0131028 0.0368307)
(0.00172385 -0.01203 0.0435952)
(0.0068249 -0.0108706 0.0214187)
(0.00370265 -0.0139673 0.02828)
(-0.003845 -0.0039446 0.0257263)
(-0.0090785 -0.00944521 0.0305531)
(-0.00372253 -0.00175624 0.0212242)
(-0.00362798 -0.0020502 0.0227185)
(-0.00368263 0.000106363 0.0214075)
(-0.00337782 3.83314e-05 0.0230416)
(-0.00336576 -0.002087 0.0239481)
(-0.00308117 -0.00395217 0.0249602)
(-0.00328432 0.000195486 0.0236846)
(-0.00324511 1.5922e-05 0.0243515)
(-0.000851456 0.00351879 0.0173439)
(-0.0037688 0.005443 0.0159258)
(-0.00472442 0.00337744 0.0158205)
(-0.00430512 0.001437 0.0145685)
(-0.00363806 0.000971636 0.017313)
(-0.00434291 0.00338362 0.0159737)
(-0.00164128 0.0041582 0.0190019)
(-0.00478476 0.00294718 0.01745)
(-0.0011117 0.00397241 0.0206497)
(-0.00450366 0.00323942 0.0194015)
(-0.00310398 0.00122841 0.0189356)
(-0.00282028 0.00119574 0.0208346)
(-0.00207738 0.00611945 0.0145656)
(-0.00545548 0.00445557 0.0148994)
(-0.00389949 0.0058836 0.0169784)
(-0.00420628 0.00786752 0.0147603)
(-0.00390387 0.00735632 0.0165819)
(-0.0034753 0.00610762 0.0189738)
(-0.00318755 0.00556018 0.0205241)
(-0.00404694 0.00722347 0.0181117)
(-0.00383371 0.00725054 0.0194953)
(-0.000194235 0.00403306 0.0216195)
(-0.0033642 0.00425046 0.0218925)
(-0.0045152 0.00249787 0.0207514)
(-0.00294296 0.0019255 0.0223312)
(-0.00308599 0.00187017 0.0217876)
(-0.00291606 0.00258254 0.0234691)
(-0.00274158 0.00134525 0.0229484)
(-0.00258711 0.00143598 0.0241031)
(-0.00310673 0.00407906 0.0241026)
(-0.00293053 0.00415915 0.0239245)
(-0.00343603 0.00555679 0.0215832)
(-0.000273598 0.00568367 0.0214822)
(-0.00411213 0.00494897 0.0234473)
(-0.00397108 0.00716997 0.0210007)
(-0.00374036 0.00693641 0.0211521)
(-1.67261e-05 0.00539048 0.0216258)
(-0.00267433 0.00575214 0.0223907)
(-0.00363545 0.00441313 0.0232109)
(-0.00381123 0.00696286 0.0213723)
(-0.000627695 0.0074923 0.0213769)
(-0.00285279 0.00677972 0.0214581)
(-0.00395529 0.00568581 0.0224979)
(-0.00221969 0.00467914 0.0241508)
(0.00421481 -0.0127294 0.0268504)
(0.00354449 -0.0179808 0.0309734)
(-0.00269834 -0.0134715 0.0336327)
(-0.00143953 -0.00693535 0.0288452)
(-0.00241137 -0.00878811 0.0322008)
(0.00029163 -0.0130014 0.0315372)
(-0.00346199 -0.0016408 0.0264948)
(0.00215682 -0.00266483 0.0279057)
(-0.00114406 -0.00370776 0.0287202)
(-0.000142009 -0.00800348 0.0323329)
(0.0134064 -0.0129245 0.0271442)
(0.0108703 -0.0125971 0.0305052)
(-0.00466622 -0.00694227 0.0328509)
(0.00417762 -0.00891836 0.0274863)
(0.00455357 -0.0143782 0.0267901)
(0.00523247 -0.0249324 0.0329432)
(0.0101715 -0.0172623 0.0293679)
(-0.00231769 0.000979389 0.0249946)
(-0.00163108 0.000530219 0.0259389)
(-0.00286158 0.000448541 0.0258621)
(-0.00273641 0.0032205 0.0254389)
(-0.00188133 0.00277438 0.0261177)
(-0.00296585 0.0025485 0.0265017)
(-0.00165994 -0.00212383 0.027101)
(-0.00290829 -0.00261079 0.0284236)
(-0.00229132 0.00019413 0.0285117)
(-0.00269581 0.00127429 0.0270555)
(-0.00262607 0.00513699 0.0233966)
(-0.00266778 0.00447785 0.0247053)
(-0.00290363 0.00604855 0.0234272)
(-0.00315716 0.00664039 0.0240823)
(0.000171292 0.00413919 0.0258576)
(-0.00288002 0.00404315 0.0266076)
(-0.00329617 0.00216962 0.0279058)
(-0.00291729 0.00248975 0.0269734)
(-0.00403007 0.00684798 0.0232779)
(-0.00146257 0.00620796 0.0239986)
(-0.00404323 0.00553773 0.0239613)
(-0.0049031 0.00444203 0.0258063)
(-0.00427837 -0.00433061 0.0293922)
(0.00539546 -0.0103072 0.0350243)
(-0.00493579 -0.0163152 0.0380157)
(0.00833984 -0.0168312 0.0387672)
(-0.00307671 -0.000839456 0.0267573)
(-0.00191913 -0.00291047 0.0269422)
(-0.00294936 -0.00405523 0.0291905)
(-0.00386542 0.00270827 0.0246354)
(-0.00412489 0.00107079 0.0247983)
(-0.00361222 0.00385454 0.0239848)
(-0.00395101 0.00380281 0.0226653)
(0.000270029 -3.94549e-05 0.0244867)
(-0.00368693 -0.00121585 0.0247754)
(-0.00293788 -0.00419781 0.028892)
(-0.00481557 0.00334583 0.0203643)
(-0.000661085 0.00260216 0.0205428)
(-0.00385827 0.00106233 0.0204348)
(-0.00468071 -0.000512589 0.0237578)
(0.0132132 -0.015348 0.0294486)
(0.0112122 -0.013413 0.0311725)
(-0.00264654 -0.00844817 0.0337441)
(0.00519972 -0.0121269 0.0277245)
(-0.00292574 -0.00343164 0.0258007)
(0.0331527 -0.0479049 -0.0156971)
(0.0330093 -0.0439154 -0.0165194)
(0.0405685 -0.0112922 -0.0259359)
(0.0456036 -0.020699 -0.0305934)
(0.0417507 -0.0173241 -0.0236846)
(0.0469644 -0.0321788 -0.0334857)
(0.0475703 -0.0275832 -0.0242784)
(0.0267855 -0.0348531 -0.0153863)
(0.0282371 -0.031651 -0.0121845)
(0.0287452 -0.0296659 -0.0168484)
(0.0348508 -0.0330306 -0.0213671)
(0.0267516 -0.0261767 -0.0182404)
(0.0249441 -0.0238149 -0.0129256)
(0.0257978 -0.0220175 -0.0169105)
(0.0347883 -0.0115349 -0.0229778)
(0.0401414 -0.0206435 -0.0268459)
(0.0359539 -0.0169069 -0.0211796)
(0.0298103 -0.0114767 -0.020805)
(0.0343041 -0.0185946 -0.0237194)
(0.0286778 -0.0166166 -0.0181619)
(0.0306217 -0.0158001 -0.0202228)
(0.0411595 -0.0292571 -0.0282133)
(0.0422665 -0.0259682 -0.0216434)
(0.0374381 -0.0285822 -0.025257)
(0.0379172 -0.0243412 -0.0199575)
(0.0286313 -0.0174385 -0.019329)
(0.0254218 -0.0217569 -0.0180791)
(0.0249627 -0.0160465 -0.0151755)
(0.0260318 -0.0159791 -0.0188933)
(0.0249531 -0.0110501 -0.0152257)
(0.0213317 -0.0126746 -0.0158106)
(0.0211447 -0.0102311 -0.0134663)
(0.0320938 -0.0257866 -0.018689)
(0.0289531 -0.0227343 -0.0164176)
(0.0295001 -0.0240804 -0.0207317)
(0.0126466 -0.0281348 0.00126158)
(0.0081587 -0.0198114 0.000197364)
(0.0113272 -0.0166308 0.000921419)
(0.0140417 -0.0303039 -0.000369334)
(0.00913974 -0.0209112 -0.00118594)
(0.011709 -0.0165448 -0.000738892)
(0.0192635 -0.0369266 -0.00198028)
(0.0202995 -0.0385351 -0.00349948)
(0.016152 -0.0267164 -0.00187355)
(0.0092444 -0.022065 -0.00216424)
(0.0130637 -0.0168446 -0.00251794)
(0.0115299 -0.02008 -0.00409357)
(0.0132697 -0.0261992 -0.00465587)
(0.0160989 -0.021629 -0.00176347)
(0.0128614 -0.0204162 -0.00474921)
(0.0149265 -0.037426 0.00206016)
(0.0191111 -0.0312052 0.000873048)
(0.017368 -0.0357782 -0.000137813)
(0.00854182 -0.0160956 -0.00150323)
(0.00777992 -0.0127246 -0.00188781)
(0.00974414 -0.011778 -0.0023229)
(0.00972551 -0.0168592 -0.00226715)
(0.00796694 -0.0144623 -0.00252463)
(0.0107008 -0.0120522 -0.00283135)
(0.00942834 -0.014298 -0.00399521)
(0.00761173 -0.0118117 -0.0035507)
(0.0053978 -0.00992957 -0.00378663)
(0.0073582 -0.00771123 -0.00430501)
(0.00663168 -0.00957328 -0.00511278)
(0.00688625 -0.0124601 -0.00352874)
(0.00868064 -0.00972117 -0.00300989)
(0.00697347 -0.00975614 -0.00468904)
(0.0100656 -0.0147581 -0.00387246)
(0.0104874 -0.0146063 -0.00426082)
(0.00927477 -0.0178698 -0.00316461)
(0.0121472 -0.014563 -0.00179952)
(0.0100577 -0.0164745 -0.00379582)
(0.0123657 -0.0140987 -0.0042365)
(0.0114128 -0.0162139 -0.00618546)
(0.00813681 -0.0111803 -0.00382532)
(0.00911565 -0.00986186 -0.00397052)
(0.00710281 -0.00938571 -0.00469865)
(0.00798887 -0.012528 -0.00414106)
(0.00984955 -0.00999797 -0.00419691)
(0.00913982 -0.0117858 -0.00512003)
(0.00638179 -0.00947793 -0.00491086)
(0.00760143 -0.00664953 -0.00379895)
(0.0265563 -0.0445586 -0.00784774)
(0.0227335 -0.0334445 -0.00582069)
(0.0271719 -0.043369 -0.00980864)
(0.0177033 -0.0323776 -0.00921178)
(0.0200069 -0.0265247 -0.00622381)
(0.0186413 -0.0284415 -0.0103565)
(0.0132734 -0.0274546 -0.00549802)
(0.0166077 -0.0208963 -0.00534462)
(0.0150999 -0.0245521 -0.00644741)
(0.0116229 -0.0205265 -0.00563556)
(0.0144902 -0.015819 -0.00366663)
(0.0162982 -0.0247933 -0.00790972)
(0.0120911 -0.0188147 -0.00635326)
(0.0144605 -0.0151093 -0.00633011)
(0.0131836 -0.0171191 -0.00826833)
(0.0244747 -0.0351449 -0.0117659)
(0.0256498 -0.0320129 -0.00812979)
(0.0197966 -0.0277261 -0.0103)
(0.0222636 -0.0341182 -0.0137221)
(0.0243539 -0.0287281 -0.0119657)
(0.0233746 -0.0292436 -0.0134255)
(0.0198921 -0.025947 -0.0110043)
(0.013641 -0.0160818 -0.00787474)
(0.0111316 -0.014934 -0.00710141)
(0.0126428 -0.0106232 -0.00580728)
(0.011795 -0.0116627 -0.00787559)
(0.0147256 -0.0197423 -0.00828951)
(0.0164449 -0.0172229 -0.00638838)
(0.0135483 -0.0197183 -0.00974002)
(0.0157589 -0.0155272 -0.00848078)
(0.0150892 -0.0166334 -0.0100229)
(0.0121477 -0.0155783 -0.00582589)
(0.00906537 -0.0125772 -0.0045022)
(0.0113098 -0.0117118 -0.00385192)
(0.010493 -0.012477 -0.0065249)
(0.0102532 -0.0146234 -0.00573627)
(0.0124807 -0.0114391 -0.00398783)
(0.0115083 -0.0128438 -0.00606111)
(0.00969193 -0.0120233 -0.00525212)
(0.00660105 -0.00898586 -0.00455324)
(0.00802815 -0.00668149 -0.00459393)
(0.00757813 -0.00845704 -0.00584701)
(0.00854225 -0.0103341 -0.00488586)
(0.00949448 -0.00848943 -0.00446742)
(0.0092078 -0.00996055 -0.00690528)
(0.0100684 -0.0124095 -0.00580596)
(0.0127586 -0.0110035 -0.0057268)
(0.0115201 -0.0120522 -0.00723438)
(0.0102934 -0.0122129 -0.00598571)
(0.0113878 -0.00928886 -0.00482078)
(0.0124288 -0.0124942 -0.0074062)
(0.010468 -0.0106991 -0.00602886)
(0.0115982 -0.00942628 -0.00593321)
(0.0113613 -0.00986753 -0.00747928)
(0.00577376 -0.00789837 -0.00485815)
(0.00386728 -0.00610437 -0.00476505)
(0.00572893 -0.00445892 -0.00510885)
(0.00533264 -0.00592799 -0.00585857)
(0.00527814 -0.00653328 -0.00450555)
(0.00665665 -0.00588034 -0.00404233)
(0.00481396 -0.00748631 -0.00438763)
(0.006924 -0.00577857 -0.00446082)
(0.00618504 -0.00714735 -0.00563319)
(0.0224774 -0.021388 -0.0147194)
(0.0166089 -0.0155605 -0.0123245)
(0.0157 -0.0125174 -0.00858613)
(0.0170152 -0.0135034 -0.0121087)
(0.0230813 -0.029182 -0.0137082)
(0.0219156 -0.0222103 -0.0109348)
(0.0166523 -0.0211922 -0.0108402)
(0.0181652 -0.0186503 -0.00865905)
(0.0185402 -0.0181988 -0.0119889)
(0.0132203 -0.0162177 -0.00967723)
(0.0136437 -0.0109856 -0.00671603)
(0.0134836 -0.0121605 -0.00882058)
(0.0128274 -0.0120645 -0.00845218)
(0.0147212 -0.0126741 -0.0103647)
(0.0125286 -0.0100369 -0.00797916)
(0.0132902 -0.00909303 -0.00696651)
(0.0136767 -0.00911777 -0.00986871)
(0.0207439 -0.0167688 -0.013089)
(0.0195047 -0.0142451 -0.0114508)
(0.0212253 -0.0141765 -0.0149252)
(0.0166077 -0.0138272 -0.0124233)
(0.0163862 -0.00937732 -0.0109527)
(0.0183556 -0.0114694 -0.0148693)
(0.0165009 -0.00950434 -0.0107671)
(0.0181741 -0.00937173 -0.0128637)
(0.0140067 -0.00987809 -0.00946)
(0.014166 -0.00918151 -0.00828967)
(0.0146655 -0.00877668 -0.0109497)
(0.0112426 -0.0100959 -0.00677207)
(0.0127316 -0.00965473 -0.00595064)
(0.0122981 -0.00938099 -0.0086603)
(0.00347904 0.010723 -0.0011251)
(0.00452319 0.0106951 -0.000272232)
(0.00343853 0.0100501 -0.00115881)
(0.0048908 0.0106522 -0.000686277)
(0.00384886 0.0105478 -0.000968262)
(0.00512319 0.0105555 -4.01533e-05)
(0.00399456 0.0099705 -0.00153714)
(0.00489515 0.0117788 -0.000998707)
(0.00528196 0.0104847 -0.000590791)
(0.00339177 0.0112936 -0.000784628)
(0.00469271 0.0108129 -0.000704776)
(0.00382033 0.0107088 -0.00151616)
(0.0051692 0.0117527 -0.000512293)
(0.0043081 0.0106655 -0.000617872)
(0.00603012 0.0102044 -0.000532641)
(0.00465228 0.0100439 -0.000876114)
(0.00446523 0.0104365 -0.000752711)
(0.00621274 0.0104846 -0.00025824)
(0.00358589 0.0110776 -0.00091969)
(0.0053814 0.011399 0.000142688)
(0.00535647 0.0116702 -0.000462899)
(0.00484932 0.0113077 -0.000789474)
(0.0038782 0.0111195 -0.0003736)
(0.00552113 0.0104391 -0.000350134)
(0.00436248 0.010449 -0.00136434)
(0.00494142 0.0103339 -6.26887e-05)
(0.00664079 0.0114383 0.00064613)
(0.00613916 0.0119895 -0.000268394)
(0.00537635 0.0112596 0.000182171)
(0.00727622 0.0111246 0.000452361)
(0.00569098 0.0107909 -0.000566847)
(0.00471639 0.0112666 -9.09834e-05)
(0.00395695 0.0113501 -0.000239839)
(0.00570368 0.0108881 -5.20514e-05)
(0.00441388 0.0125677 0.000253625)
(0.00375835 0.0114097 0.000194915)
(0.00571724 0.0112787 0.000138377)
(0.00597921 0.0121765 -9.34745e-05)
(0.00576523 0.0114141 0.000328213)
(0.00795263 0.011789 0.0009598)
(0.0060596 0.0126354 0.000308215)
(0.00596254 0.011856 0.000840677)
(0.0083557 0.012347 0.00121527)
(0.00458703 0.0127676 0.000771143)
(0.00384416 0.0114745 0.000785667)
(0.00579049 0.0114986 0.000694452)
(0.00487787 0.0131074 0.00132146)
(0.003931 0.011558 0.00143667)
(0.00590393 0.0115546 0.0012801)
(0.00621549 0.0130112 0.000902341)
(0.00607063 0.012149 0.00141143)
(0.00866212 0.0127269 0.00168422)
(0.00629672 0.0132242 0.00155295)
(0.00619635 0.0123081 0.00204468)
(0.00890894 0.0128974 0.00222672)
(0.00505948 0.0133602 0.00162786)
(0.00395814 0.0115547 0.00184576)
(0.00599709 0.0115762 0.00164721)
(0.00508695 0.0137994 0.00187506)
(0.00395611 0.0116121 0.00223545)
(0.00616674 0.0115766 0.00215181)
(0.00647262 0.0134044 0.00208985)
(0.00634283 0.0124053 0.00256627)
(0.00905056 0.01298 0.00266479)
(0.00677022 0.0135976 0.00275939)
(0.00646393 0.0124906 0.00326908)
(0.00918801 0.0129631 0.00323349)
(0.00549558 0.012704 0.00187808)
(0.00429713 0.0117655 0.00238568)
(0.00666113 0.0116607 0.0024804)
(0.00529205 0.0127811 0.0026962)
(0.00453612 0.0116576 0.00287897)
(0.00726868 0.0120926 0.00267424)
(0.00719657 0.0138427 0.00342627)
(0.00671667 0.0125096 0.00373668)
(0.00937944 0.0128264 0.00335129)
(0.00793534 0.0141134 0.0040268)
(0.00599474 0.0127712 0.00450358)
(0.00924021 0.0136506 0.004443)
(0.00844861 0.0127686 0.00482255)
(0.00540783 0.0127925 0.00294821)
(0.00394195 0.0115004 0.00337738)
(0.00777683 0.0131494 0.00382762)
(0.00680673 0.0118239 0.00326887)
(0.00385059 0.01227 0.0034425)
(0.00755304 0.0131291 0.00285246)
(0.00833187 0.0148568 0.00540209)
(0.00671175 0.0144842 0.00466134)
(0.0098982 0.0143175 0.00397905)
(0.00699053 0.0138671 0.00514457)
(0.0100419 0.0151136 0.00525322)
(0.009313 0.0141532 0.00576733)
(0.00350429 0.0116284 0.00337789)
(0.00770153 0.0133893 0.00381515)
(0.00666542 0.011924 0.00283425)
(0.00705044 0.0150885 0.00486409)
(0.0105897 0.015604 0.00440687)
(0.00809593 0.0151324 0.00510941)
(0.00710341 0.014388 0.0049782)
(0.0104459 0.0162157 0.00509395)
(0.00995107 0.0148632 0.00530357)
(0.00621646 0.0142419 0.00461349)
(0.0105403 0.0172678 0.00523876)
(0.00968248 0.0149802 0.00489397)
(-0.00163594 0.00475741 0.0145332)
(-0.00497781 0.00274528 0.0176384)
(-0.000852896 0.00411934 0.0136802)
(-0.00338827 0.00298805 0.0143244)
(-0.00487094 0.00261669 0.0164868)
(-0.00137224 0.00574785 0.0110937)
(-0.00122382 0.00602002 0.00966391)
(0.000475462 0.00564409 0.00910717)
(-0.00126342 0.0045079 0.00933145)
(-0.00355773 0.00368943 0.0103934)
(0.000882604 0.0080163 0.00647771)
(-0.00195186 0.00741478 0.00772176)
(0.00138756 0.00739081 0.00543879)
(0.000309841 0.0067485 0.00608177)
(-0.00145283 0.00682122 0.00628234)
(0.00149209 0.00825449 0.00422671)
(0.00186261 0.00793655 0.00369164)
(0.000968963 0.00656164 0.00576967)
(0.00223511 0.00622364 0.0058515)
(0.000811144 0.00538394 0.0064496)
(-0.00105666 0.00496895 0.00646552)
(0.00235756 0.00778394 0.0036542)
(0.00190961 0.00721655 0.00387135)
(0.000224655 0.00679204 0.00329338)
(0.00276277 0.00713925 0.00366691)
(-0.00265002 0.00140638 0.0148886)
(0.000466837 0.00141869 0.0151242)
(-0.00271016 0.000533242 0.0161512)
(-0.00248909 -0.00501996 0.0210304)
(-0.000476061 0.00377356 0.00982173)
(0.00345839 0.00657245 0.00411469)
(0.00268466 0.00624198 0.00465714)
(0.000846738 0.00588128 0.004062)
(-0.00270392 -0.0031877 0.0192241)
(0.00058994 -0.00654795 0.0160012)
(0.00116487 -0.0164197 0.0216183)
(0.00499446 -0.0127261 0.020453)
(0.00113273 0.00357714 0.00991947)
(-0.0015449 0.00284443 0.0109472)
(-0.00272961 0.000884685 0.0118264)
(-0.00165355 0.000914632 0.0129816)
(-9.65247e-05 -0.00131574 0.0161735)
(-0.00327863 -0.0028355 0.0162128)
(0.00170582 -0.0119085 0.0246612)
(0.00193586 -0.00909944 0.0172312)
(0.00170781 -0.0173474 0.0227485)
(0.00428167 -0.013272 0.0214554)
(0.0013612 0.00525727 0.0065614)
(0.0022249 0.00489023 0.00713972)
(0.000396274 0.00374031 0.00692789)
(-0.00112465 0.00325248 0.00744073)
(0.00297167 0.00598389 0.00453554)
(0.00217152 0.00552494 0.00567326)
(0.000693531 0.00268779 0.00830477)
(-0.000729336 0.00232831 0.00958726)
(0.00264465 0.0047394 0.00661287)
(0.00308426 0.00427493 0.00736363)
(0.00174421 0.0042208 0.0073445)
(2.88849e-05 0.00241176 0.00786496)
(0.000270923 -0.000383987 0.0136752)
(-0.00339262 -0.00281636 0.0168141)
(0.00290655 0.00942759 0.00208455)
(0.00132445 0.0087697 0.00266929)
(0.00276467 0.00844973 0.00175825)
(0.0027774 0.00855701 0.00227521)
(0.00152348 0.00796745 0.00169688)
(0.00265647 0.00977425 0.000432858)
(0.0031208 0.00960293 0.00110126)
(0.00208981 0.00930471 -3.44126e-05)
(0.00368079 0.00941285 0.000467569)
(0.00357869 0.00873809 0.00119585)
(0.00387133 0.00877382 0.00161295)
(0.00256669 0.00810664 0.000462469)
(0.00344379 0.00850118 0.00198582)
(0.00351118 0.00751973 0.00220506)
(0.00339261 0.0071654 0.00265528)
(0.00198057 0.00693439 0.00197807)
(0.00433763 0.00854995 0.00122682)
(0.00394383 0.00996929 0.000195282)
(0.00341363 0.00972158 -0.000352333)
(0.00422177 0.0093537 0.000637238)
(0.00287985 0.00888907 -0.000291161)
(0.00418824 0.010894 -0.000469648)
(0.00454781 0.00985768 -2.76744e-05)
(0.00470899 0.00977966 0.000237493)
(0.00443637 0.00880177 0.000743856)
(0.00480704 0.00854775 0.00131959)
(0.00355724 0.00828593 0.000370625)
(0.00385827 0.00992929 -0.000152781)
(0.00497888 0.00938494 8.91676e-05)
(0.00381721 0.00919221 -0.000583192)
(0.00538267 0.0100686 0.000309714)
(0.0041246 0.00738438 0.00241781)
(0.0042706 0.00677604 0.00296769)
(0.00418095 0.00660625 0.00271027)
(0.00270357 0.00628189 0.00266032)
(0.00413511 0.00761707 0.00178975)
(0.00455403 0.00762248 0.00225127)
(0.0031231 0.00709591 0.000995932)
(0.00448212 0.00776015 0.00171998)
(0.00465662 0.00706408 0.00305274)
(0.00478858 0.00901931 0.000576673)
(0.00581675 0.00846295 0.000814496)
(0.0044316 0.00842945 0.000337632)
(0.0051826 0.00876624 0.00103108)
(0.00497166 0.00796304 0.00169813)
(0.00586332 0.00814708 0.00151581)
(0.00432602 0.00762429 0.00114232)
(0.00513321 0.00914646 0.00112825)
(0.00639452 0.00858583 0.00208867)
(0.00556847 0.00816733 0.00187799)
(0.005643 0.00699038 0.00188327)
(0.00438762 0.00714333 0.00197976)
(0.00558938 0.00831869 0.00131571)
(0.00630411 0.00752351 0.00270294)
(0.00493839 0.00652236 0.00330002)
(0.00391475 0.00552075 0.00442994)
(0.00241473 0.00548183 0.00384105)
(0.00411047 0.00563249 0.00436986)
(0.00355298 0.00500479 0.0054596)
(0.00513455 0.00723066 0.00255251)
(0.00534257 0.00637318 0.0033609)
(0.00537497 0.00624225 0.00314644)
(0.00382022 0.00595099 0.00239545)
(0.00531816 0.0075763 0.00213731)
(0.00595956 0.0065597 0.00241835)
(0.00582947 0.00773881 0.00171841)
(0.0065787 0.00679764 0.0030753)
(0.00558751 -0.00914629 0.0166344)
(0.000937057 -0.013495 0.0199)
(0.003564 0.0030087 0.00928388)
(0.00106471 0.00204496 0.00972558)
(-0.000656707 -0.00100542 0.0121686)
(0.00335499 0.000653661 0.012764)
(0.00147681 0.00110524 0.0129312)
(0.00148896 -0.00839539 0.0197844)
(0.00559006 0.00649983 0.00366353)
(0.00515945 0.00537076 0.00386667)
(0.00362447 0.00527265 0.00349531)
(0.00377798 0.0045319 0.00552993)
(0.00295347 0.00381843 0.00626109)
(0.00329235 0.00365539 0.00687451)
(0.00300784 0.00378114 0.006716)
(0.00564175 0.00574953 0.0044286)
(0.0043885 0.004581 0.00476474)
(0.00337637 0.00455876 0.00472478)
(0.00451863 0.00465733 0.00596412)
(0.00575855 0.00676741 0.00268438)
(0.00592918 0.00571298 0.00296035)
(0.00630671 0.00720161 0.00208407)
(0.00676451 0.00627792 0.0035009)
(0.00576188 0.00615923 0.00321214)
(0.00599037 0.00510559 0.00355861)
(0.00674963 0.00689097 0.00267326)
(0.00665708 0.00523771 0.00321896)
(0.00642303 0.00530098 0.00399783)
(0.00525724 0.00398075 0.00419958)
(0.00459258 0.00460509 0.00427529)
(0.00628331 0.00595528 0.00312462)
(0.00659659 0.00468194 0.00357823)
(0.0119352 -0.0175066 0.0205494)
(0.00474042 -0.0133355 0.0252923)
(0.00334945 -0.00290115 0.0117642)
(0.000130654 -0.00488701 0.0132033)
(0.000948784 -0.00700649 0.0176225)
(0.0081644 -0.00953185 0.0181264)
(0.00473042 -0.0150403 0.01623)
(0.00224178 -0.0149682 0.0154664)
(0.00295134 0.00348125 0.00799868)
(0.00120492 0.00237722 0.00900065)
(0.000937654 0.00225257 0.0109402)
(0.00457068 0.00422388 0.00548076)
(0.00437858 0.00342117 0.00591748)
(0.00558532 0.00324423 0.0072501)
(0.0039351 0.00225003 0.00784353)
(0.00311223 0.00262094 0.00906725)
(0.00443923 0.00221108 0.0116389)
(-0.000234528 0.000599347 0.0132713)
(0.00290761 0.00316842 0.00674692)
(0.00546007 0.00447499 0.00526477)
(0.0058332 0.0044001 0.00468327)
(0.00523763 0.00343742 0.00505995)
(0.00677358 0.00496793 0.00397042)
(0.00585673 0.00339059 0.00424162)
(0.00524753 0.00450419 0.00369628)
(0.00630718 0.00445979 0.00427019)
(0.0046188 0.00316747 0.00674866)
(0.00239407 -0.00551605 0.0154569)
(0.000422586 -0.00745923 0.0146489)
(0.0034294 0.00261713 0.00888338)
(0.00182459 0.00152498 0.0103482)
(0.00448954 0.00284332 0.00596489)
(0.00376273 0.00193958 0.0060264)
(0.00658399 0.00379705 0.00464808)
(0.00506734 0.00231588 0.00504243)
(0.00455731 0.0033576 0.0045865)
(0.00489708 0.003212 0.00494081)
(0.00253611 -0.0149567 0.0184868)
(0.00225791 -0.0121405 0.0206352)
(0.000245504 -0.00221181 0.0118171)
(0.00315564 -0.00472047 0.0120225)
(0.000694682 -0.00537505 0.0113008)
(0.000101328 -0.00831674 0.0146944)
(0.00168841 -0.0117137 0.0163004)
(0.00278482 0.00141221 0.00779128)
(0.00298858 0.00158807 0.00751227)
(0.00125566 0.000566153 0.00693757)
(0.00515778 0.00233625 0.0050395)
(0.00324111 0.000987095 0.00506722)
(0.00316717 0.00194687 0.00512791)
(0.00306806 0.00166712 0.00458101)
(0.000555168 0.000346547 0.00792225)
(0.00108153 -0.000692229 0.0100793)
(0.00275436 0.000909691 0.00561036)
(0.00375755 0.000236368 0.00600406)
(0.00221611 -0.000683049 0.00695412)
(0.00239854 0.000190574 0.00832603)
(0.00495586 0.0110073 -0.000560472)
(0.00438382 0.00973838 -0.00010468)
(0.00567055 0.0103557 0.000628419)
(0.00588841 0.0103996 0.000198471)
(0.0056413 0.0111804 -0.000559054)
(0.00491495 0.0100747 0.000139034)
(0.00601956 0.00988692 -1.31821e-05)
(0.00496966 0.00987839 -0.000945074)
(0.00510767 0.0110697 -0.000378592)
(0.00662616 0.0106256 0.00081165)
(0.00652271 0.011421 -5.22397e-05)
(0.00533993 0.00886341 0.000619558)
(0.00649347 0.0093878 0.00150958)
(0.0064512 0.010682 0.000367129)
(0.00579738 0.00976824 0.000699159)
(0.00713381 0.00936394 0.000938639)
(0.00573974 0.00926942 0.000248066)
(0.00668562 0.00972393 0.00102403)
(0.00612876 0.00854242 0.0015944)
(0.00707543 0.00833288 0.00130296)
(0.00571086 0.00822466 0.000772131)
(0.00634531 0.00865862 0.00160244)
(0.0072238 0.00724248 0.00166584)
(0.00580928 0.0075499 0.00146457)
(0.00592616 0.00985358 0.0011185)
(0.00711774 0.00852568 0.00134097)
(0.00615545 0.0087018 0.00135484)
(0.00726568 0.00751694 0.00162943)
(0.00684311 0.0111841 0.000348597)
(0.00629564 0.0095656 0.00101472)
(0.00752141 0.00969804 0.00100884)
(0.00583697 0.0106379 0.00019395)
(0.0074803 0.010636 0.000399343)
(0.00587546 0.010281 -0.000503293)
(0.00626314 0.0113997 0.000868903)
(0.00742731 0.0098941 0.00113774)
(0.00615595 0.00980141 0.00108047)
(0.00778774 0.00884466 0.00210368)
(0.00659015 0.00886372 0.00110109)
(0.0077169 0.00765116 0.0025236)
(0.00743196 0.0105132 0.00117596)
(0.00648796 0.00895188 0.00125221)
(0.00790677 0.00850417 0.00134434)
(0.00661907 0.00856196 0.00050846)
(0.00676281 0.0119124 0.000209993)
(0.00634191 0.0104605 0.000992628)
(0.00801559 0.0111719 0.0010548)
(0.00652086 0.0115486 0.00126901)
(0.00793475 0.010789 0.00238864)
(0.00622785 0.0122725 0.00109343)
(0.00797169 0.0111492 0.00136623)
(0.00808091 0.0122702 0.0015035)
(0.00705744 0.010902 0.00202431)
(0.00818119 0.0104169 0.00211834)
(0.00670751 0.010486 0.00131436)
(0.00759353 0.0111652 0.00167034)
(0.00669773 0.00899708 0.00210674)
(0.00782255 0.00895012 0.00186759)
(0.00645481 0.0109942 0.00238372)
(0.00783613 0.00903804 0.00231951)
(0.0064845 0.0124948 0.00142512)
(0.00817182 0.0115897 0.00167049)
(0.00837048 0.0130409 0.00201799)
(0.00672308 0.0129941 0.00171179)
(0.00851196 0.0120221 0.00194193)
(0.00878602 0.0135992 0.00245012)
(0.00733548 0.0112601 0.00246223)
(0.0087991 0.0111152 0.00287769)
(0.00777556 0.0118169 0.00295287)
(0.00939074 0.0116251 0.0032498)
(0.00672452 0.0111368 0.00294882)
(0.00828059 0.00925413 0.00290342)
(0.00708193 0.0116031 0.00347197)
(0.00873211 0.00955821 0.00344444)
(0.00683662 0.00900423 0.00164011)
(0.00784421 0.00708805 0.00149836)
(0.00677268 0.00773279 0.0010681)
(0.00690931 0.00804459 0.00185737)
(0.00757392 0.00654004 0.00198473)
(0.00624128 0.00694553 0.00176891)
(0.00753822 0.00752692 0.00220919)
(0.00690043 0.00596287 0.00242463)
(0.00661058 0.00660812 0.00246304)
(0.0066666 0.00808927 0.00167202)
(0.0075974 0.00676395 0.00193046)
(0.00718972 0.00752447 0.00195441)
(0.00790333 0.0059599 0.00215382)
(0.00763956 0.00654233 0.00344011)
(0.00720976 0.00630255 0.00276998)
(0.00710358 0.00458512 0.00317625)
(0.00798529 0.00671618 0.00240511)
(0.00715657 0.00505642 0.00260197)
(0.00704713 0.00597575 0.00232597)
(0.007849 0.00589871 0.00352528)
(0.00696702 0.00818228 0.00132616)
(0.00795691 0.00683228 0.00275791)
(0.00748468 0.00751826 0.00156181)
(0.00799627 0.0057893 0.00286708)
(0.00747525 0.0082688 0.00176544)
(0.00830393 0.00635028 0.00176643)
(0.00720689 0.00709223 0.00127188)
(0.00793024 0.00743283 0.00210385)
(0.007858 0.00558171 0.00245489)
(0.0073249 0.00642571 0.00175152)
(0.00804073 0.00712598 0.00182875)
(0.00847254 0.00526515 0.00267991)
(0.00816289 0.0061788 0.00288401)
(0.00742735 0.00430006 0.00312811)
(0.00703692 0.00545508 0.00290296)
(0.00898575 0.00669588 0.00265031)
(0.00803986 0.00648099 0.00268377)
(0.00743307 0.00508968 0.00305074)
(0.00646723 0.00890684 0.00165548)
(0.00777128 0.00731399 0.00180314)
(0.00639867 0.00928565 0.00214248)
(0.00801883 0.00764374 0.00226502)
(0.00674296 0.00964276 0.00283439)
(0.0084052 0.00784808 0.00294455)
(0.00706881 0.00990282 0.00348333)
(0.00879822 0.00804091 0.00358666)
(0.00716775 0.00812118 0.00181865)