/*--------------------------------*- C++ -*----------------------------------*\
| =========                 |                                                 |
| \\      /  F ield         | OpenFOAM: The Open Source CFD Toolbox           |
|  \\    /   O peration     | Version:  5.0                                   |
|   \\  /    A nd           | Web:      www.OpenFOAM.org                      |
|    \\/     M anipulation  |                                                 |
\*---------------------------------------------------------------------------*/
FoamFile
{
    version     2.0;
    format      ascii;
    class       surfaceScalarField;
    location    "60";
    object      phiHyper;
}
// * * * * * * * * * * * * * * * * * * * * * * * * * * * * * * * * * * * * * //

dimensions      [0 3 -1 0 0 0 0];

internalField   nonuniform List<scalar> 
105833
(
9.32439e-09
-1.75546e-09
3.83711e-09
1.00066e-08
-1.90613e-09
3.80914e-09
1.06766e-08
-2.08355e-09
3.79044e-09
1.8357e-09
-4.21259e-09
1.08982e-08
-4.23502e-09
-2.2987e-09
4.52883e-09
1.7833e-09
5.59852e-08
-7.71739e-09
-2.04485e-08
6.79854e-09
6.15006e-09
1.38595e-09
1.91667e-09
-1.47557e-08
-1.5587e-08
-1.01868e-08
6.80641e-08
-2.83007e-08
-9.04397e-09
1.74482e-08
7.81699e-09
7.84794e-08
-2.1245e-08
-9.71358e-09
1.92351e-08
1.30801e-09
1.12112e-07
-6.35077e-08
6.30129e-09
-8.0063e-09
3.15805e-08
1.10687e-07
-2.94641e-08
-7.72654e-09
4.13368e-08
-2.72123e-09
1.58749e-07
-9.60354e-08
-4.55378e-09
5.16714e-08
8.55874e-10
-4.99696e-09
6.63011e-07
2.6927e-08
-2.55503e-08
-5.703e-08
9.92881e-09
3.57507e-08
-6.84143e-09
-3.45836e-08
9.26873e-08
1.01571e-07
4.15665e-08
4.24113e-08
-1.13892e-07
-1.60614e-07
-1.06719e-07
-3.44877e-07
2.08391e-07
-1.52972e-07
-1.68574e-08
9.53767e-08
-1.38935e-07
1.53598e-07
-9.6762e-08
6.84528e-08
-1.83522e-08
1.01454e-07
2.01032e-07
-1.39841e-07
5.22925e-09
1.05943e-07
-1.87651e-08
2.01706e-07
-2.53904e-08
3.25122e-08
1.16033e-07
4.19864e-08
-3.44777e-08
5.37319e-08
1.00188e-07
4.8565e-08
-1.21764e-08
1.96551e-08
4.78961e-08
-1.03203e-08
1.75011e-08
1.04233e-08
-7.94301e-09
1.1989e-08
1.16553e-08
1.30621e-08
1.1744e-08
1.09753e-08
-1.42444e-09
1.52628e-09
1.28031e-09
1.07574e-08
6.69528e-10
9.51142e-10
-5.05611e-10
2.98237e-10
6.48996e-10
-1.36882e-10
7.87291e-10
-1.14273e-08
-8.18091e-12
-7.75756e-11
-5.32788e-11
-1.88334e-11
-4.77294e-11
-3.5069e-11
-1.2014e-11
-7.56223e-11
-4.81333e-11
-1.08904e-11
-1.12603e-10
-8.28195e-11
4.93808e-12
-1.54297e-10
-1.07966e-10
1.82282e-11
-2.24709e-10
-1.66322e-10
-2.43091e-11
-1.38406e-10
-1.01966e-10
-4.29676e-11
-9.51325e-11
-6.7471e-11
-2.84033e-11
-1.5552e-10
-8.94754e-11
-3.20691e-11
-2.05097e-10
-1.36973e-10
-3.14444e-11
-2.52166e-10
-1.66282e-10
-3.3212e-11
-2.7882e-10
-1.84117e-10
-3.14039e-11
-3.08344e-10
-2.04423e-10
-3.0829e-11
-3.2445e-10
-2.18167e-10
-2.71902e-11
-3.49278e-10
-2.35723e-10
-2.38357e-11
-3.60215e-10
-2.44774e-10
-1.7163e-11
-3.78393e-10
-2.57201e-10
-1.33112e-11
-3.82597e-10
-2.60435e-10
-3.75384e-12
-3.88032e-10
-2.62486e-10
-1.04842e-12
-3.80162e-10
-2.55925e-10
1.11648e-11
-3.60921e-10
-2.41317e-10
1.43719e-11
-3.24314e-10
-2.13099e-10
4.91983e-11
-2.64307e-10
-1.42668e-10
1.7356e-11
-1.70491e-10
-1.06689e-10
-6.70783e-11
-2.52431e-10
-1.58967e-10
-3.61105e-11
-3.89355e-10
-2.95027e-10
3.77219e-11
-2.3775e-10
-1.69021e-10
1.79153e-11
-1.48972e-10
-1.09311e-10
-4.5041e-11
-2.38929e-10
-1.54243e-10
-2.33961e-11
-4.05045e-10
-2.83445e-10
4.22354e-11
-2.39245e-10
-1.53143e-10
2.24374e-11
-1.28994e-10
-1.00525e-10
-1.8297e-11
-1.94619e-10
-1.45933e-10
-5.07996e-12
-3.45391e-10
-2.39114e-10
4.18379e-11
-2.45306e-10
-1.22941e-10
1.60282e-11
-1.33589e-10
-8.41755e-11
-1.65733e-11
-1.74446e-10
-1.22551e-10
2.00753e-11
-2.46047e-10
-1.64084e-10
2.26799e-11
-1.25825e-10
-8.00063e-11
-3.95965e-11
-1.67194e-10
-1.17314e-10
3.08583e-11
-2.15633e-10
-1.4726e-10
8.83546e-12
-1.11315e-10
-7.5267e-11
-1.62515e-11
-1.49146e-10
-1.00744e-10
1.60777e-11
-2.07181e-10
-1.24964e-10
1.37215e-11
-9.58603e-11
-6.02957e-11
-2.18358e-11
-1.22028e-10
-8.67609e-11
1.12061e-11
-1.58247e-10
-9.6573e-11
4.02262e-12
-6.64058e-11
-4.42238e-11
5.36171e-12
-8.12972e-11
-6.09114e-11
8.13544e-12
-8.83727e-11
-6.51767e-11
7.2701e-12
-9.45008e-11
-6.80848e-11
6.41266e-12
-9.20142e-11
-6.75803e-11
7.763e-12
-8.9562e-11
-6.75322e-11
4.7039e-12
-8.76166e-11
-6.51778e-11
8.01862e-12
-8.55518e-11
-6.3355e-11
3.55298e-12
-8.07773e-11
-6.0849e-11
8.68963e-12
-7.59875e-11
-5.81062e-11
4.1078e-12
-6.99393e-11
-5.07209e-11
3.35466e-12
-5.705e-11
-3.80055e-11
3.88361e-11
-1.37059e-10
-8.95009e-11
9.49388e-12
-1.0917e-10
-6.96432e-11
3.76293e-12
-8.84791e-11
-6.58479e-11
-2.86052e-12
-7.8338e-11
-5.62944e-11
3.12398e-12
-6.96696e-11
-5.097e-11
2.47685e-12
-5.55578e-11
-4.31592e-11
-7.15577e-13
-4.2257e-11
-3.04222e-11
2.06128e-11
-8.94163e-11
-6.81437e-11
8.46891e-13
-6.4563e-11
-4.8662e-11
-2.04129e-12
-4.58839e-11
-3.40125e-11
2.15674e-11
-8.56188e-11
-6.85819e-11
3.32685e-13
-6.1644e-11
-4.54015e-11
-1.01262e-12
-4.19564e-11
-3.20939e-11
1.68716e-11
-7.25361e-11
-6.38605e-11
9.83918e-13
-5.01154e-11
-3.90266e-11
-5.20064e-12
-3.43682e-11
-2.76958e-11
9.66765e-12
-5.35639e-11
-4.37599e-11
1.69264e-11
-7.4373e-11
-7.59621e-11
-1.28616e-12
-4.42378e-11
-3.88208e-11
-4.83781e-12
-2.7217e-11
-2.49015e-11
4.03999e-12
-4.05843e-11
-3.73241e-11
1.24344e-11
-5.65959e-11
-5.20504e-11
1.6008e-11
-7.39637e-11
-6.97106e-11
-1.28793e-12
-3.95656e-11
-3.34939e-11
-5.6608e-12
-2.25834e-11
-2.25689e-11
3.38801e-12
-3.13917e-11
-3.40986e-11
6.14265e-12
-4.29039e-11
-4.55024e-11
8.79504e-12
-5.02281e-11
-4.85134e-11
-5.62127e-11
-4.98432e-11
-5.02519e-11
-6.46071e-12
-2.86239e-11
-3.38705e-11
-9.29968e-12
-2.92167e-11
-2.0414e-11
-1.04624e-11
-2.67766e-11
-5.73118e-12
-1.25646e-11
-3.24747e-11
2.8676e-12
-1.24384e-11
-2.73068e-11
1.18697e-11
-1.15891e-11
-2.70527e-11
1.32252e-11
-9.66276e-12
-1.76482e-11
1.1551e-11
-7.926e-12
-1.2112e-11
4.52199e-12
-4.0472e-12
-6.93278e-12
-9.48779e-12
5.74911e-12
-1.76793e-11
2.59407e-11
-8.53388e-12
-8.77934e-12
3.77848e-12
-9.0165e-12
-1.28179e-11
5.37421e-12
-7.61123e-12
-1.53892e-11
4.32174e-12
-1.82202e-12
-1.8098e-11
7.19149e-13
3.47141e-12
-1.96627e-11
1.93017e-12
1.17561e-11
-1.87585e-11
-2.09153e-12
2.00042e-11
-1.64231e-11
-2.28805e-12
3.07454e-11
-1.11633e-11
-8.87884e-12
-1.02764e-11
-1.31692e-11
-1.34995e-11
-5.27344e-11
-1.96661e-11
-1.38929e-11
-7.40884e-11
-3.8123e-11
9.0508e-12
-1.04087e-10
-7.31551e-11
-5.61774e-12
-1.1543e-10
-9.46108e-11
-5.97989e-11
-2.78712e-11
-5.63537e-11
-3.67263e-11
-3.60988e-11
-1.02406e-10
-3.34713e-11
-6.01444e-12
3.11232e-11
-2.83644e-11
-2.06598e-11
-1.12572e-11
3.24815e-11
-3.40374e-11
-2.88265e-12
-1.59629e-11
-4.31587e-11
4.13431e-11
7.93988e-12
-1.72406e-11
4.75166e-11
-4.10996e-11
1.94493e-11
-1.81765e-11
4.87046e-11
-4.20395e-11
2.05363e-11
-1.59187e-11
4.53279e-11
-3.04958e-11
1.81467e-11
-1.30026e-11
3.86139e-11
-2.32211e-11
5.42614e-12
-6.73048e-12
3.43138e-11
-1.48615e-11
-1.3011e-11
5.80992e-12
3.9386e-11
-2.67586e-11
-1.13207e-11
-1.24134e-11
3.99299e-12
-1.26261e-11
-1.80917e-11
6.39526e-12
-1.16001e-11
-2.22317e-11
5.28641e-12
-4.93499e-12
-2.52721e-11
4.29375e-13
1.98708e-12
-2.37504e-11
-4.13362e-13
1.20358e-11
-2.12495e-11
-4.76198e-12
2.17003e-11
-1.59308e-11
-4.99186e-12
-7.47708e-12
-1.29361e-11
7.29695e-11
-1.81886e-11
-4.49413e-11
-1.73178e-11
-2.13264e-11
-2.87079e-11
-2.36131e-11
-1.09107e-10
-4.41265e-11
-2.74587e-11
-1.33705e-10
-6.75464e-11
-2.99205e-11
-1.61774e-10
-8.79304e-11
-3.29005e-11
-1.77523e-10
-9.83165e-11
-3.15269e-11
-1.97801e-10
-1.11917e-10
-3.05556e-11
-2.07033e-10
-1.18388e-10
-2.65706e-11
-2.227e-10
-1.30563e-10
-2.36083e-11
-2.28225e-10
-1.34953e-10
-1.77621e-11
-2.4006e-10
-1.44178e-10
-1.24834e-11
-2.42197e-10
-1.45678e-10
-5.9334e-12
-2.45355e-10
-1.49226e-10
-7.85332e-13
-2.40217e-10
-1.45094e-10
4.49668e-12
-2.29379e-10
-1.36824e-10
8.09868e-12
-2.10224e-10
-1.17692e-10
1.66627e-11
-1.90079e-10
-8.27924e-11
3.22047e-11
-1.31276e-10
-5.47571e-11
-1.9253e-11
-1.17657e-10
-8.33166e-11
-4.9276e-11
-1.69425e-10
-1.89909e-10
1.25746e-11
-1.80385e-10
-1.19214e-10
3.48278e-11
-1.15485e-10
-5.57404e-11
-9.2247e-12
-1.10183e-10
-8.46944e-11
-3.89048e-11
-1.71642e-10
-2.03725e-10
1.58554e-11
-1.81072e-10
-1.12934e-10
3.49012e-11
-1.01463e-10
-4.65771e-11
5.56192e-12
-8.57385e-11
-7.9541e-11
-2.34729e-11
-1.39947e-10
-1.76409e-10
1.55217e-11
-1.85294e-10
-9.9008e-11
3.02041e-11
-1.08276e-10
-3.99957e-11
2.15841e-12
-6.62118e-11
-8.0188e-11
-7.52431e-12
-8.87139e-11
-1.47651e-10
2.75208e-11
-1.0855e-10
-5.23196e-11
-1.24808e-12
-7.67956e-11
-6.16289e-11
-3.82436e-12
-7.88598e-11
-1.34196e-10
2.46707e-11
-9.32322e-11
-4.65782e-11
1.65407e-12
-5.68241e-11
-6.93047e-11
-6.42383e-12
-6.98885e-11
-1.29213e-10
2.01628e-11
-8.32991e-11
-3.9148e-11
1.21967e-12
-5.59651e-11
-4.71195e-11
-5.81427e-12
-5.31986e-11
-9.80149e-11
2.8388e-12
-4.8571e-11
-2.64883e-11
6.18048e-12
-5.58531e-11
-2.87865e-11
6.0334e-12
-6.14686e-11
-2.67573e-11
6.59109e-12
-6.41461e-11
-3.0913e-11
4.53996e-12
-6.13557e-11
-2.86076e-11
5.77883e-12
-6.03682e-11
-3.04333e-11
4.2203e-12
-5.88617e-11
-2.71971e-11
5.53611e-12
-5.79649e-11
-2.89037e-11
3.61978e-12
-5.3964e-11
-2.48971e-11
4.38211e-12
-5.10298e-11
-2.5719e-11
2.99748e-12
-4.76936e-11
-2.08603e-11
1.61024e-11
-4.68431e-11
-2.33119e-11
1.52067e-11
-8.21897e-11
-5.39727e-11
5.71463e-12
-3.22689e-11
-6.74094e-11
3.48472e-12
-3.67916e-11
-4.94566e-11
-5.67049e-12
-2.71487e-11
-4.20332e-11
2.98117e-12
-5.34415e-11
-2.48807e-11
2.141e-12
-3.8333e-11
-1.63858e-11
1.04917e-11
-3.34489e-11
-1.71587e-11
7.95971e-12
-3.68514e-11
-5.00313e-11
-4.02775e-12
-2.04016e-11
-3.21733e-11
1.02387e-11
-3.88328e-11
-2.13179e-11
8.42366e-12
-3.67922e-11
-4.70095e-11
-3.81202e-12
-1.90719e-11
-3.03356e-11
8.78057e-12
-3.49285e-11
-1.96213e-11
7.01641e-12
-3.16409e-11
-3.91293e-11
-3.00068e-12
-1.55513e-11
-2.45461e-11
1.61341e-12
-2.59504e-11
-1.3033e-11
1.33048e-11
-3.76884e-11
-2.75673e-11
6.98533e-12
-3.64532e-11
-3.15983e-11
-3.19679e-12
-1.40047e-11
-2.005e-11
8.43812e-13
-2.04211e-11
-1.08384e-11
5.01716e-12
-2.77849e-11
-1.69755e-11
1.34817e-11
-3.46928e-11
-3.0369e-11
6.71854e-12
-3.06412e-11
-3.65573e-11
-2.93368e-12
-1.20131e-11
-1.78993e-11
6.79905e-13
-1.66156e-11
-9.58302e-12
4.16255e-12
-2.06475e-11
-1.42305e-11
6.70425e-12
-2.45746e-11
-2.08756e-11
7.34979e-12
-2.65285e-11
-2.43506e-11
-3.01183e-11
-2.61301e-11
-9.07194e-12
-1.47147e-11
-1.57906e-11
-9.82543e-12
-1.13458e-11
-1.44351e-11
-6.66254e-12
-1.70412e-11
-1.07013e-11
-5.78534e-12
-1.34416e-11
-8.08434e-12
-3.57338e-12
-1.14813e-11
-7.34717e-12
5.21353e-13
-8.28227e-12
-5.04898e-12
9.23606e-12
-2.23768e-12
-9.68907e-12
-8.97502e-13
1.33463e-11
-9.99815e-12
-1.54971e-11
-1.144e-11
-6.55804e-12
-2.00504e-11
-1.11758e-11
-4.30217e-12
-1.4205e-11
-8.47211e-12
1.94247e-13
-8.56759e-12
-5.47601e-12
9.54681e-12
-2.55387e-12
-1.04775e-11
-7.62706e-13
1.39888e-11
-1.2212e-11
-1.53065e-11
-1.27268e-11
-5.22338e-12
-1.96963e-11
-1.32428e-11
-1.36354e-12
-8.90943e-12
-6.17014e-12
1.12193e-11
-4.38716e-12
-1.33855e-11
-4.67961e-13
1.68764e-11
-6.23827e-12
-2.24299e-11
-1.06504e-11
-1.7762e-12
-1.04189e-11
-7.50709e-12
1.3464e-11
-5.04246e-12
-1.5679e-11
-9.82617e-13
1.99277e-11
-6.65082e-12
-2.5565e-11
-1.16615e-11
-1.8454e-12
-1.18084e-11
-8.14287e-12
1.51458e-11
-4.42988e-12
-1.62696e-11
-1.73164e-12
2.05852e-11
-5.93592e-15
-2.37247e-11
-1.41497e-11
-9.63777e-12
-2.26678e-11
-6.03326e-12
-1.60612e-11
-2.27743e-11
-2.42441e-11
-2.86559e-12
-1.57096e-11
-1.41125e-11
1.66262e-11
-6.43709e-12
-1.71709e-11
-3.66868e-12
2.44104e-11
-1.65203e-12
-2.11673e-11
-1.28469e-11
2.92286e-11
-5.45303e-12
-2.52803e-11
-5.17683e-12
3.42572e-11
1.14898e-13
-3.31271e-11
-1.92829e-11
-9.78285e-12
-2.74915e-11
-1.03034e-11
-8.29296e-12
-2.51799e-11
-2.73396e-11
-1.15103e-11
-3.73943e-11
-1.33515e-11
-8.74935e-12
-2.96142e-11
-3.11116e-11
-1.16636e-11
-4.00402e-11
-1.59078e-11
-8.32492e-12
-3.10421e-11
-3.26639e-11
-1.26742e-11
-3.95245e-11
-1.7482e-11
-1.71051e-11
-2.61725e-11
-3.35418e-11
-1.1891e-11
-4.79368e-11
-1.87464e-11
-7.35509e-12
-3.53105e-11
-2.50788e-11
-1.30997e-11
-3.01762e-11
-1.26509e-11
-3.07279e-12
-2.64338e-11
-1.63315e-11
3.27381e-11
-4.24819e-12
-2.21649e-11
-9.38539e-12
3.27255e-11
-1.76663e-11
-5.38936e-11
-1.59899e-11
-5.07184e-12
-3.49866e-11
-2.12456e-11
4.36382e-11
-5.65042e-12
-2.75875e-11
-1.28293e-11
4.09955e-11
-1.9453e-11
-5.89421e-11
-2.04886e-11
-4.9106e-12
-3.58429e-11
-2.28059e-11
4.41063e-11
-4.73804e-12
-2.99563e-11
-1.47949e-11
4.45785e-11
-2.14065e-11
-6.58228e-11
-2.60618e-11
-5.65751e-12
-3.76428e-11
-2.68073e-11
4.87005e-11
-5.0686e-12
-3.11868e-11
-1.76672e-11
4.82643e-11
7.84752e-12
-7.42403e-11
-4.69548e-11
-3.25791e-11
-8.66107e-11
-5.82585e-11
-1.63793e-11
-3.08978e-11
-4.20317e-11
5.67296e-11
-7.07518e-12
-3.97811e-11
-2.5174e-11
5.56509e-11
-5.63355e-12
-6.39468e-11
-3.89583e-11
-2.37474e-11
-1.0404e-10
-5.89201e-11
-4.44743e-12
-5.5209e-11
-3.74881e-11
7.33967e-11
1.0127e-12
-3.67043e-11
-3.04385e-11
6.16825e-11
1.73545e-12
-6.78203e-11
-4.83888e-11
-1.03661e-11
-1.04603e-10
-6.36829e-11
8.88058e-13
-5.73982e-11
-2.75439e-11
7.36867e-11
8.78405e-12
-3.80341e-11
-3.03856e-11
6.05229e-11
5.49891e-12
-7.61463e-11
-5.18457e-11
-2.25179e-12
-1.09295e-10
-7.30348e-11
-6.285e-13
-1.26606e-10
-8.52429e-11
3.87123e-12
-1.34515e-10
-9.93643e-11
1.00461e-11
-1.4015e-10
-1.06242e-10
1.8253e-11
-1.42872e-10
-1.1069e-10
2.44458e-11
-1.41779e-10
-1.06612e-10
3.2373e-11
-1.41487e-10
-1.06502e-10
3.60856e-11
-1.35599e-10
-9.63403e-11
4.15932e-11
-1.33385e-10
-9.48251e-11
4.13936e-11
-1.24808e-10
-8.20268e-11
4.28408e-11
-1.20847e-10
-7.84024e-11
3.83839e-11
-1.09363e-10
-6.37036e-11
3.60359e-11
-1.01726e-10
-5.76998e-11
2.83491e-11
-8.54609e-11
-4.05581e-11
-6.76401e-11
-3.13066e-11
2.82166e-11
-3.11916e-11
-3.92561e-11
-2.54091e-11
-2.36642e-11
-8.99242e-12
-3.55757e-11
-8.38104e-13
-8.50117e-12
-4.76796e-11
4.84697e-12
-2.39354e-11
3.5845e-11
1.46859e-11
-6.0395e-11
-3.78171e-11
-4.92187e-11
-3.9653e-11
-5.04355e-11
-4.15198e-11
-5.89903e-11
-5.71137e-11
-4.3615e-11
-5.90702e-11
-5.54711e-11
-4.47337e-11
-7.7756e-11
-5.67734e-11
-4.52155e-11
-7.82909e-11
-5.04161e-11
-4.48814e-11
-9.48604e-11
-4.65376e-11
-4.52485e-11
-9.4229e-11
-3.55994e-11
-4.61896e-11
-1.06235e-10
-2.75282e-11
-4.74761e-11
-1.02373e-10
-1.69924e-11
-4.85312e-11
-1.04877e-10
-9.63293e-12
-4.9051e-11
-9.8459e-11
-4.55337e-12
-4.94724e-11
-9.01239e-11
-9.14975e-13
-4.93119e-11
-8.09333e-11
-1.72201e-12
-4.71968e-11
-6.12932e-11
-1.74872e-12
-3.60451e-11
-4.00767e-11
-1.54851e-12
-1.87389e-11
-1.9496e-11
-9.07162e-12
-2.9224e-11
-2.06516e-11
2.80348e-12
-5.01591e-11
-6.6319e-11
4.7166e-12
-3.24793e-11
-3.72545e-11
1.10986e-11
-1.96696e-11
-2.34181e-11
8.38187e-12
-1.82673e-11
-3.42258e-11
7.54164e-12
-6.20045e-11
-4.1199e-11
1.46482e-11
-2.98385e-11
-4.12162e-11
5.75274e-12
-2.14558e-11
-9.43136e-12
2.19292e-11
4.87349e-12
-1.16466e-11
-9.40391e-12
-2.41096e-11
-7.14715e-11
2.80505e-11
-1.9737e-11
-2.75512e-11
1.60339e-11
-3.92567e-11
-2.29709e-11
1.48795e-11
-2.1667e-11
-8.36739e-12
1.91818e-11
-2.96313e-11
-1.23154e-11
1.00509e-11
-1.90741e-11
-3.76214e-11
1.5189e-11
-2.38043e-11
-1.12913e-11
1.88605e-11
-2.65521e-11
-1.29638e-11
1.02086e-11
-1.3674e-11
-3.66176e-11
1.51074e-11
-2.34825e-11
-9.005e-12
1.78368e-11
-2.48797e-11
-1.28376e-11
7.48927e-12
-9.18866e-12
-3.43587e-11
6.2461e-12
-1.61618e-11
-4.76062e-12
1.45987e-11
-1.98259e-11
-1.49609e-11
1.43533e-11
-2.6137e-11
-3.79427e-12
1.53379e-11
-2.30137e-11
-1.32811e-11
6.87948e-13
-3.23212e-12
-3.00564e-11
1.54076e-11
2.18265e-12
-1.3158e-11
-3.74387e-12
-1.34117e-11
-3.68786e-11
7.83047e-12
-1.23312e-11
-6.72816e-12
1.71545e-11
3.17223e-12
-1.26412e-11
1.45055e-13
-1.30677e-11
-4.08616e-11
8.52419e-12
-1.21625e-11
-6.257e-12
1.67244e-11
3.30531e-12
-1.22081e-11
7.02189e-13
-1.19933e-11
-3.82925e-11
8.48519e-12
-1.15375e-11
-5.63607e-12
1.47771e-11
3.60307e-12
-1.10598e-11
1.16405e-12
-8.18574e-12
-2.97079e-11
1.50664e-11
-1.08641e-11
-8.78564e-12
1.33415e-11
-1.67044e-11
-1.46981e-11
4.12091e-12
3.16577e-12
-1.92269e-11
1.07732e-11
-1.85197e-11
-9.30171e-12
5.05254e-12
-1.56957e-11
4.24411e-12
5.92306e-12
-1.2683e-11
-3.89878e-12
1.29471e-11
2.66871e-12
-1.07222e-11
1.02794e-12
-6.79135e-12
-2.57064e-11
1.18186e-11
-8.91495e-12
-7.02786e-12
9.93193e-12
-1.12673e-11
-1.05741e-11
3.19795e-12
4.34824e-12
-1.38846e-11
1.16912e-11
-1.31805e-11
-7.12276e-12
1.02841e-11
-1.27595e-11
-1.14004e-11
3.3063e-12
5.61984e-12
-1.43228e-11
1.07443e-11
-1.23777e-11
-5.48165e-12
8.92232e-12
-9.21071e-12
-1.13991e-11
2.67576e-12
5.0078e-12
-1.2149e-11
6.46376e-12
-9.75644e-12
-2.94348e-12
5.73981e-12
-1.70847e-11
-1.88703e-12
8.59205e-12
1.88342e-12
-8.81944e-12
4.08197e-12
-3.55824e-12
-1.36339e-11
4.88028e-12
-4.62117e-12
-1.93456e-12
6.61533e-12
-9.46778e-12
-8.36946e-13
1.09214e-11
-1.59009e-11
-2.61358e-12
4.41059e-12
-1.11602e-11
-2.38119e-12
8.3989e-12
8.43238e-13
3.61135e-12
-8.44503e-12
-3.94489e-12
-1.28434e-11
4.54921e-12
-6.32794e-12
-1.32443e-12
5.98136e-12
-9.50133e-12
-2.15688e-13
9.77757e-12
-1.32553e-11
-2.02548e-12
1.06064e-11
-6.08424e-12
-8.19209e-12
5.43573e-12
-1.15134e-12
-1.07265e-11
6.5554e-12
9.96557e-13
5.44464e-12
-7.56507e-12
4.80842e-12
-2.54436e-12
-7.05957e-12
-4.49352e-12
-1.01095e-11
-7.395e-12
-1.77988e-11
6.67239e-12
-7.10661e-12
-1.61461e-11
1.0089e-11
5.76554e-12
-7.12462e-12
-1.37479e-11
8.21237e-12
5.55105e-12
-5.76164e-12
-1.1096e-11
5.99734e-12
3.7331e-12
-4.4608e-12
-7.76625e-12
3.95391e-12
2.5089e-12
-1.91889e-12
-4.76917e-12
6.05864e-13
1.61928e-12
-8.02673e-12
-8.17169e-12
7.20736e-12
7.06998e-12
-1.37356e-11
-8.01059e-12
1.33115e-11
4.00572e-13
-7.92789e-12
-1.54416e-11
8.85473e-12
7.73946e-13
-5.25045e-12
-9.32503e-12
5.67366e-12
9.71173e-13
-1.92804e-12
-5.46049e-12
6.13872e-14
2.07434e-12
-7.86993e-12
-8.25845e-12
6.79687e-12
7.40148e-12
-1.26289e-11
-7.03248e-12
1.21072e-11
-3.20895e-13
-6.84323e-12
-1.02643e-11
6.60591e-12
-2.1299e-12
-2.9313e-12
-4.05557e-12
-1.49619e-12
1.63875e-12
-1.067e-11
-7.3672e-12
7.1471e-12
7.95661e-12
-8.61143e-12
-1.18272e-11
1.12146e-11
-1.4521e-12
-5.43146e-12
-5.09189e-12
4.25408e-12
-2.34451e-12
-1.42582e-11
-8.39908e-12
7.27657e-12
9.94696e-12
-9.87042e-12
-1.22132e-11
1.13751e-11
-3.55503e-12
-6.00296e-12
-4.94123e-12
4.54455e-12
-3.47175e-12
-1.4827e-11
-8.12449e-12
7.4484e-12
9.49861e-12
-9.59561e-12
-1.10348e-11
1.14697e-11
-5.67003e-12
-5.38446e-12
-4.26891e-12
4.04864e-12
-3.9919e-12
-1.24246e-11
-6.38385e-12
6.26796e-12
7.15453e-12
-7.56803e-12
-7.89328e-12
7.61486e-12
-4.58237e-12
-1.65312e-11
-1.08019e-11
9.54889e-12
1.0213e-11
-1.26495e-11
-2.34606e-12
1.04546e-11
-1.19921e-11
-3.79233e-12
-4.12944e-12
-5.33046e-12
6.01536e-13
-1.05867e-11
-5.28889e-12
4.25505e-12
7.82736e-12
-6.86389e-12
-5.65111e-12
6.09739e-12
-4.16974e-12
-1.41991e-11
-6.8109e-12
7.55369e-12
6.59203e-12
-8.27287e-12
-6.97768e-12
8.23665e-12
-7.18521e-12
-1.60421e-11
-7.29998e-12
9.10108e-12
5.96753e-12
-8.81287e-12
-7.20708e-12
9.01623e-12
-9.03831e-12
-1.6507e-11
-7.12322e-12
9.2307e-12
5.58671e-12
-8.7889e-12
-6.77513e-12
9.19919e-12
-1.01417e-11
-1.5433e-11
-6.57889e-12
9.13179e-12
4.09194e-12
-7.72626e-12
-6.04263e-12
8.704e-12
-1.03684e-11
-1.29006e-11
-5.22932e-12
7.73958e-12
2.66412e-12
-6.13746e-12
-4.32951e-12
6.38393e-12
-8.81798e-12
-1.21697e-11
-3.60768e-12
5.88179e-12
3.75757e-12
-2.23841e-11
-1.01749e-11
1.71142e-11
3.27392e-12
-1.05027e-11
-6.2837e-12
1.1614e-11
-1.72125e-11
-1.58569e-11
-4.78055e-12
8.58055e-12
1.55292e-12
-7.13318e-12
-3.0956e-12
6.11807e-12
-1.17474e-11
-1.28559e-11
-2.43071e-12
5.44681e-12
2.70542e-12
-1.78512e-11
-5.58288e-12
1.21445e-11
-1.57024e-12
-7.48978e-12
-2.0298e-12
5.80722e-12
-1.41403e-11
-1.27678e-11
-1.09721e-12
4.61894e-12
1.75495e-12
-1.80094e-11
-1.66783e-12
1.02917e-11
-3.38531e-12
-7.41822e-12
7.53013e-13
4.12061e-12
-1.54664e-11
-1.293e-11
7.52728e-13
3.4559e-12
1.30171e-12
-2.07964e-11
3.2795e-12
6.36344e-12
-1.78204e-12
-2.31001e-11
7.26287e-12
8.89154e-12
-1.3855e-11
-8.51593e-12
5.82111e-12
3.12206e-12
-2.35296e-11
-1.1421e-11
4.1212e-12
1.33591e-12
-2.55322e-12
-1.73755e-11
1.15573e-11
-2.82773e-13
-5.32267e-12
-1.43398e-11
2.12196e-11
-5.9783e-12
-1.82793e-11
-5.37049e-12
1.28259e-11
-3.448e-12
-1.83492e-11
-6.53189e-12
7.5581e-12
-1.29196e-12
-5.10554e-12
-4.76433e-12
1.58637e-11
-3.03e-12
-1.46047e-11
-1.70182e-12
2.49835e-11
-5.4799e-12
-2.25675e-11
7.37501e-12
3.80523e-11
-7.76684e-12
-3.9363e-11
1.60412e-12
1.86348e-11
-1.29049e-12
-1.15749e-11
3.51021e-12
1.10613e-11
-3.57251e-13
-1.26105e-11
7.21224e-12
2.37606e-11
-2.82875e-12
-2.46372e-11
1.22427e-11
3.9049e-11
-1.02804e-11
-3.3802e-11
1.62672e-11
5.54704e-11
-2.38666e-11
-3.56305e-11
2.25536e-11
6.88864e-11
-3.27228e-11
-4.24525e-11
3.06673e-11
8.04088e-11
-4.15117e-11
-4.70133e-11
4.26811e-11
8.79391e-11
-4.63955e-11
-5.35577e-11
5.08181e-11
9.1123e-11
-4.82399e-11
-5.10209e-11
6.27026e-11
9.24078e-11
-4.86978e-11
-5.55969e-11
6.63899e-11
8.9127e-11
-4.59969e-11
-4.68202e-11
7.39899e-11
8.63196e-11
-4.40538e-11
-4.98679e-11
7.18734e-11
7.85751e-11
-3.84023e-11
-3.80585e-11
7.29765e-11
7.23149e-11
-3.39074e-11
-3.95128e-11
6.4599e-11
6.05938e-11
-2.71478e-11
-2.50694e-11
6.10606e-11
5.00961e-11
-2.10666e-11
-2.5494e-11
4.86261e-11
3.61704e-11
-9.05219e-12
3.69132e-11
2.281e-11
-6.25142e-12
1.20267e-11
2.94583e-13
-3.75749e-11
2.55993e-11
-1.27155e-12
-4.60253e-11
4.38306e-11
-1.25737e-11
-5.766e-11
6.00143e-11
-1.22124e-11
-6.23304e-11
7.96761e-11
-2.49124e-11
-7.14192e-11
9.41345e-11
-2.44537e-11
-7.01327e-11
1.06693e-10
-3.56652e-11
-7.27964e-11
1.14552e-10
-3.33156e-11
-6.66281e-11
1.22172e-10
-4.20224e-11
-6.3555e-11
1.24373e-10
-3.83215e-11
-5.29183e-11
1.26454e-10
-4.46856e-11
-4.55971e-11
1.23708e-10
-3.99078e-11
-3.44098e-11
1.18456e-10
-4.17061e-11
-2.67108e-11
1.08618e-10
-3.59081e-11
-1.87035e-11
9.33784e-11
-3.25006e-11
-1.26425e-11
7.61053e-11
-2.66987e-11
-8.05077e-12
5.50793e-11
-2.06224e-11
-4.42703e-12
3.56215e-11
-1.54864e-11
-2.15134e-12
1.69982e-11
-8.21396e-12
-7.23745e-12
2.8384e-11
-4.66464e-12
-4.51704e-13
5.44383e-11
-2.31742e-11
2.73718e-12
3.65309e-11
-1.47371e-11
4.66177e-12
2.40918e-11
-1.01535e-11
4.56241e-12
1.15939e-11
-3.93699e-12
1.30616e-11
1.95076e-11
-1.51819e-11
1.61674e-11
3.4022e-11
-1.59124e-11
1.12975e-11
1.93605e-11
-2.93541e-12
8.38358e-12
8.281e-12
-1.24723e-12
2.23524e-11
1.29587e-11
-2.1109e-11
1.94023e-11
1.93123e-11
-9.1038e-12
1.31215e-11
1.02039e-11
-6.45945e-13
8.10464e-12
3.95614e-12
1.81201e-12
1.99164e-11
5.12922e-12
-1.61901e-11
1.36488e-11
5.52355e-12
-9.27215e-13
8.38448e-12
1.58187e-12
2.58382e-12
1.9487e-11
1.72822e-12
-1.48629e-11
1.35893e-11
2.31893e-13
7.98995e-14
7.79688e-12
-2.21909e-14
3.38219e-12
1.72681e-11
-2.73444e-13
-1.22949e-11
1.14165e-11
-1.44132e-12
2.51095e-12
2.47842e-11
-1.95778e-12
-1.7695e-11
1.38967e-11
-4.78461e-12
5.49644e-12
7.22635e-12
-1.68678e-12
4.74922e-12
1.47807e-11
-2.27079e-12
-9.61307e-12
8.97809e-12
-3.42146e-12
3.99509e-12
1.76632e-11
-3.64872e-12
-1.10784e-11
9.91701e-12
-4.46697e-12
5.63435e-12
1.89828e-11
-4.84443e-12
-1.09965e-11
1.01149e-11
-5.49655e-12
7.24085e-12
1.86116e-11
-5.83149e-12
-9.87249e-12
9.65124e-12
-6.25206e-12
7.91192e-12
1.71496e-11
-6.27001e-12
-8.20642e-12
8.49933e-12
-6.38758e-12
8.22601e-12
1.42767e-11
-5.66575e-12
-5.7633e-12
6.73672e-12
-5.42462e-12
7.67408e-12
1.0319e-11
-4.54388e-12
-3.1695e-12
6.08605e-12
3.4185e-12
-4.05225e-12
4.86462e-12
-1.51353e-14
-7.04939e-12
9.52557e-12
-2.39329e-12
-3.73094e-12
1.62291e-11
-7.99328e-12
-6.60835e-12
7.36231e-12
-7.24159e-12
9.72124e-12
1.45247e-11
-6.03523e-12
-5.39889e-12
1.76056e-11
-3.5481e-12
-1.05725e-11
8.00279e-12
-1.11979e-11
1.2673e-11
1.55828e-11
-7.67645e-12
-4.84816e-12
1.67504e-11
-5.14941e-12
-8.23758e-12
7.07761e-12
-1.13828e-11
1.26532e-11
1.36321e-11
-8.54843e-12
-3.10196e-12
1.34245e-11
-5.72051e-12
-5.90661e-12
5.14929e-12
-1.01429e-11
1.10483e-11
8.48777e-12
-6.59509e-12
-8.02406e-13
8.99478e-12
-1.30983e-11
2.32175e-12
7.1821e-12
2.34507e-12
-7.85711e-12
7.32233e-12
-1.67052e-12
-6.44097e-12
4.94423e-12
-4.17499e-12
-9.63206e-14
8.29094e-12
-9.1012e-12
2.91055e-13
1.13069e-11
-1.39621e-11
1.6162e-12
9.64753e-12
-1.90879e-11
5.30072e-12
7.92488e-12
2.41084e-12
-9.09421e-12
8.40374e-12
-1.65086e-12
-6.60964e-12
4.58518e-12
-3.96806e-12
1.41885e-13
6.84372e-12
-8.20546e-12
1.175e-12
8.11316e-12
-1.2863e-11
3.82404e-12
9.34582e-12
-1.73238e-11
4.99296e-12
9.48926e-12
-2.10525e-11
7.15817e-12
9.16258e-12
-2.32791e-11
7.45782e-12
-2.7726e-11
8.36132e-12
6.00164e-11
-8.68761e-11
-3.94414e-09
1.34315e-10
-1.1363e-10
-3.61067e-09
1.99446e-10
-1.28596e-10
-3.32354e-09
-1.38208e-10
-3.00486e-09
-1.84052e-10
-1.08683e-10
-3.26777e-09
-1.13227e-10
-9.57091e-11
-3.61584e-09
-3.45075e-11
-7.73029e-11
-3.95241e-09
-4.65187e-11
-4.32317e-09
-2.2276e-10
8.42927e-10
-1.16653e-08
-6.53308e-11
7.05797e-10
-1.09816e-08
-5.57225e-10
6.19408e-10
5.98571e-11
-1.01293e-08
-4.97744e-10
-2.81011e-11
-9.89178e-09
-1.06651e-10
-4.4598e-10
-9.532e-09
-3.58815e-10
-8.90147e-11
-2.30347e-09
-3.34607e-10
-8.51386e-11
-2.58317e-09
-2.94866e-10
-8.3908e-11
-2.86803e-09
-2.41312e-10
-8.12044e-11
-3.20225e-09
-1.75679e-10
-8.07218e-11
-3.55873e-09
-1.01505e-10
-6.49704e-11
-3.94511e-09
-2.18812e-11
-4.52921e-11
-4.313e-09
-1.1048e-11
-4.73455e-09
-4.63036e-12
6.01774e-12
3.47928e-12
-4.4187e-12
4.87461e-12
3.12475e-12
-2.97223e-12
8.32251e-13
3.71614e-12
-1.45982e-12
1.87571e-12
5.64038e-13
-6.7646e-12
6.30938e-12
6.11182e-12
-7.11814e-12
-1.18857e-11
-7.65953e-13
-7.3766e-12
-7.4565e-12
-6.23709e-13
-4.80963e-12
-1.22054e-13
-1.6085e-12
-2.60722e-13
2.73164e-12
-7.17306e-12
5.94102e-12
7.91012e-12
-8.287e-12
-1.22731e-11
-2.16997e-12
-8.63839e-12
-7.2262e-12
-2.4098e-12
-3.94598e-12
-1.29535e-12
-1.10312e-11
8.70243e-12
-1.04372e-11
-1.33905e-11
-7.80624e-12
-6.92193e-12
-6.79895e-12
-5.13782e-12
-2.6788e-12
-2.62922e-12
2.76233e-12
-8.5184e-12
4.68177e-12
8.43333e-12
-7.34523e-12
-2.18024e-12
-2.90916e-12
-3.21355e-12
3.32123e-12
-8.85054e-12
4.24538e-12
9.14339e-12
-7.22304e-12
-3.34196e-12
-2.64639e-12
-3.58345e-12
3.05439e-12
-7.34925e-12
2.74261e-12
8.22661e-12
-5.34776e-12
-3.3037e-12
-1.23506e-11
5.82692e-12
-7.04238e-12
-7.53863e-12
-1.6108e-11
7.23863e-12
-1.38699e-11
-1.36019e-11
-5.28796e-12
-1.57411e-11
-3.74236e-12
-7.42537e-12
3.66263e-12
-9.51151e-12
2.23195e-12
1.10898e-11
-6.43434e-12
-5.70544e-12
-1.26176e-11
4.22364e-12
-6.88809e-12
-8.25149e-12
-1.27881e-11
2.92176e-12
-6.63635e-12
-9.11507e-12
-1.18151e-11
1.66955e-12
-6.26824e-12
-9.17306e-12
-1.26797e-11
9.93471e-13
-3.49956e-12
-9.66314e-12
6.86753e-12
-7.91042e-12
-2.73559e-13
1.05665e-11
-1.82753e-11
1.34366e-12
-9.24e-12
-1.7247e-11
-1.56246e-11
-1.19588e-12
-4.13274e-12
-1.21496e-11
6.77504e-12
-9.00741e-12
-1.56745e-12
1.18885e-11
-1.82451e-11
-2.10348e-12
-4.36946e-12
-1.46949e-11
6.62524e-12
-9.00345e-12
-2.81508e-12
1.20672e-11
-1.86045e-11
-3.91438e-12
-4.43683e-12
-1.68343e-11
6.78593e-12
-8.70802e-12
-3.75479e-12
1.1481e-11
-1.94453e-11
-4.57045e-12
-2.20509e-11
-2.77631e-11
-8.89913e-12
-2.97687e-11
-1.30312e-11
-6.17893e-12
-1.86946e-11
-1.60759e-11
-1.83247e-11
-3.61874e-11
-3.66995e-12
-2.64766e-11
8.37294e-12
-3.31028e-12
-1.25776e-11
1.0926e-11
-3.29779e-12
-2.2715e-11
-8.98216e-13
-4.03595e-11
9.67967e-12
-6.85061e-11
1.3138e-12
-2.21503e-11
2.12548e-12
-1.99081e-11
2.99597e-12
-3.97467e-11
3.98e-12
-5.84624e-11
9.32859e-12
-7.85304e-11
1.593e-11
-8.87996e-11
2.4758e-11
-9.93919e-11
3.71375e-11
-1.07307e-10
4.5228e-11
-1.03807e-10
5.73709e-11
-1.07031e-10
6.15669e-11
-9.54423e-11
7.06307e-11
-9.80009e-11
6.9119e-11
-8.21079e-11
7.2316e-11
-8.18403e-11
6.28639e-11
-6.1313e-11
-6.01176e-11
2.2019e-10
-2.25655e-10
-2.51801e-10
2.14004e-10
-1.6856e-11
4.07979e-10
-1.79592e-10
-2.38102e-10
1.70917e-10
5.70817e-10
-1.28501e-10
-2.11042e-10
1.19005e-10
7.43919e-10
-9.67558e-11
-2.5225e-10
8.79729e-11
8.33701e-11
-8.26923e-11
-3.53276e-10
8.62006e-11
-3.06541e-10
-6.30275e-10
1.44049e-10
-4.70513e-10
-2.44124e-10
1.29915e-11
-8.72728e-11
-2.00981e-10
-1.21815e-10
3.63223e-11
-2.91217e-10
-2.52534e-10
-9.04449e-10
2.00953e-11
-2.80814e-10
-7.81987e-10
3.77234e-11
-2.35327e-10
-5.16398e-10
4.69472e-11
-1.91976e-10
-3.93107e-10
7.90601e-11
-1.3991e-10
-2.6512e-10
8.71977e-12
-4.98419e-11
-1.02026e-10
-7.22105e-11
-1.59547e-10
-1.60174e-10
-5.3298e-10
-1.49297e-10
9.01149e-10
-1.18062e-08
2.30766e-12
7.65672e-10
-1.10982e-08
1.45508e-10
6.83903e-10
-1.02736e-08
-5.12869e-10
2.74012e-10
5.8126e-10
-9.59615e-09
-4.49046e-10
1.81083e-10
-9.46126e-09
-3.89096e-10
8.62749e-11
-9.23953e-09
-3.37675e-10
1.20732e-13
-8.89236e-09
1.83524e-10
-8.14036e-11
-8.49054e-09
-9.11146e-09
-1.96413e-10
-3.50952e-11
-4.12001e-09
-7.8537e-11
-8.92516e-11
-3.76686e-09
3.11477e-11
-1.19989e-10
-3.46728e-09
-1.44371e-10
-3.13003e-09
-3.81342e-10
-7.17859e-11
-2.43137e-09
-3.53635e-10
-6.40964e-11
-2.73606e-09
-3.10371e-10
-5.99769e-11
-3.05638e-09
-2.53882e-10
-5.46367e-11
-3.42176e-09
-1.86139e-10
-5.29391e-11
-3.82543e-09
-1.11188e-10
-3.48883e-11
-4.24281e-09
-3.23046e-11
-1.36386e-11
-4.6626e-09
2.32803e-11
-5.11245e-09
-2.42812e-10
-4.48815e-09
5.90836e-13
-1.19511e-10
-4.10633e-09
-5.86449e-11
-3.45984e-12
-3.75864e-09
-9.32434e-11
-3.39653e-09
-1.20434e-10
-3.36857e-09
5.9802e-11
6.7095e-10
-1.01563e-10
3.17036e-09
3.88568e-09
4.15774e-09
8.36862e-09
6.47552e-10
-1.56622e-08
6.1216e-10
-1.57455e-12
1.01836e-09
1.09402e-09
-2.55529e-11
-4.03527e-09
-6.93457e-11
1.01479e-09
7.75087e-11
3.69263e-09
4.6124e-09
5.06043e-09
2.13708e-09
-1.86009e-08
9.48877e-10
1.78955e-10
2.25349e-10
4.89259e-09
1.82842e-10
-5.37399e-09
-1.04189e-09
-2.68027e-10
3.1087e-11
-1.45454e-10
-3.39512e-11
-4.46027e-09
-2.6038e-11
-7.0245e-11
-4.08753e-09
8.43627e-11
-1.00536e-10
-3.68903e-09
1.80411e-10
-1.02335e-10
-3.31842e-09
2.58651e-10
-1.09656e-10
-2.96415e-09
3.1743e-10
-1.11386e-10
-2.65858e-09
-1.17474e-10
-2.35218e-09
-3.47925e-10
-1.4676e-09
-8.49558e-11