/*--------------------------------*- C++ -*----------------------------------*\
| =========                 |                                                 |
| \\      /  F ield         | OpenFOAM: The Open Source CFD Toolbox           |
|  \\    /   O peration     | Version:  5.0                                   |
|   \\  /    A nd           | Web:      www.OpenFOAM.org                      |
|    \\/     M anipulation  |                                                 |
\*---------------------------------------------------------------------------*/
FoamFile
{
    version     2.0;
    format      ascii;
    class       surfaceScalarField;
    location    "60";
    object      phiRest;
}
// * * * * * * * * * * * * * * * * * * * * * * * * * * * * * * * * * * * * * //

dimensions      [0 3 -1 0 0 0 0];

internalField   nonuniform List<scalar> 
105833
(
1.15172e-08
-1.0039e-09
5.9159e-09
1.28937e-08
-9.54948e-10
6.6934e-09
1.407e-08
-9.34636e-10
7.35017e-09
1.04008e-09
-8.63186e-09
1.3751e-08
-8.91435e-09
-9.38016e-10
9.22956e-09
9.41891e-10
7.58856e-08
-1.3265e-09
-4.5739e-08
1.25474e-08
1.21995e-08
5.36745e-09
5.65332e-09
-2.16612e-08
-2.216e-08
-1.33146e-08
8.9056e-08
-5.72022e-08
-2.1053e-09
3.93e-08
6.83728e-09
9.43365e-08
-3.92456e-08
-3.5792e-09
3.87215e-08
-1.17677e-09
1.23874e-07
-8.40213e-08
8.53319e-09
-3.39357e-09
4.93441e-08
1.1035e-07
-3.44462e-08
-3.41467e-09
5.04671e-08
9.18853e-10
1.46816e-07
-9.28991e-08
-2.57789e-09
5.08196e-08
8.19177e-09
7.60153e-09
5.28241e-07
2.4754e-08
-1.06888e-08
-3.05923e-08
1.8488e-08
3.02505e-08
-3.02424e-09
-1.8727e-08
6.13883e-08
7.05041e-08
3.03109e-08
2.77885e-08
-9.74759e-08
-1.39297e-07
-9.74385e-08
-2.55266e-07
1.4762e-07
-8.303e-08
-1.71662e-09
4.5127e-08
-1.00399e-07
1.07228e-07
-3.78193e-08
3.66804e-08
-2.96908e-09
4.45015e-08
1.42853e-07
-7.33907e-08
-7.37131e-09
4.75002e-08
-2.36362e-09
1.43073e-07
-3.47471e-09
1.12827e-08
5.44582e-08
3.29095e-08
-5.31084e-09
3.92428e-08
5.21646e-08
3.6782e-08
-1.41272e-09
1.39357e-08
3.69725e-08
-1.30739e-09
1.58799e-08
8.18825e-09
-1.20875e-09
1.42991e-08
9.97468e-09
1.03481e-08
8.51713e-09
9.09367e-09
-3.57706e-10
2.90074e-09
2.64172e-10
9.08425e-09
2.4998e-10
2.27137e-09
-2.82316e-10
2.24766e-10
1.71663e-09
-2.3261e-10
1.78594e-09
-9.30137e-09
-1.49312e-11
-7.17846e-11
-5.82124e-11
-2.54385e-11
-4.00126e-11
-3.31155e-11
-2.19326e-11
-6.40159e-11
-4.34753e-11
-2.48558e-11
-8.99232e-11
-7.11356e-11
-1.56542e-11
-1.21288e-10
-9.10674e-11
-7.17122e-12
-1.61358e-10
-1.34765e-10
-3.03853e-11
-9.60943e-11
-9.54607e-11
-4.33257e-11
-6.06287e-11
-5.39455e-11
-3.67898e-11
-9.31127e-11
-6.31723e-11
-4.28847e-11
-1.16917e-10
-9.10931e-11
-4.54418e-11
-1.37364e-10
-1.05062e-10
-4.78619e-11
-1.49226e-10
-1.12622e-10
-4.8336e-11
-1.58067e-10
-1.19115e-10
-4.87579e-11
-1.64016e-10
-1.24293e-10
-4.77379e-11
-1.71046e-10
-1.29841e-10
-4.63062e-11
-1.75669e-10
-1.33877e-10
-4.33646e-11
-1.81738e-10
-1.382e-10
-4.1355e-11
-1.84379e-10
-1.4059e-10
-3.62966e-11
-1.87547e-10
-1.4194e-10
-3.38313e-11
-1.85512e-10
-1.4117e-10
-2.51757e-11
-1.79205e-10
-1.36419e-10
-1.86965e-11
-1.62283e-10
-1.25747e-10
6.39836e-12
-1.35983e-10
-9.08566e-11
-9.97851e-12
-9.34284e-11
-6.74715e-11
-7.03884e-11
-1.37457e-10
-8.18914e-11
-4.84031e-11
-2.09311e-10
-1.77917e-10
2.33595e-12
-1.3086e-10
-1.08313e-10
-7.06463e-12
-8.85765e-11
-7.10479e-11
-5.60058e-11
-1.42641e-10
-8.53873e-11
-3.96162e-11
-2.38903e-10
-1.80791e-10
1.1603e-11
-1.46585e-10
-1.06766e-10
3.3298e-12
-8.54162e-11
-7.13613e-11
-2.92999e-11
-1.3308e-10
-9.83322e-11
-1.64862e-11
-2.35868e-10
-1.73626e-10
2.25336e-11
-1.68684e-10
-9.1928e-11
7.37108e-12
-9.54477e-11
-6.35354e-11
-1.70254e-11
-1.2851e-10
-9.10972e-11
1.19319e-11
-1.81651e-10
-1.23276e-10
1.64371e-11
-9.65165e-11
-6.22738e-11
-3.11716e-11
-1.32016e-10
-9.29644e-11
2.44162e-11
-1.7032e-10
-1.13207e-10
8.60568e-12
-9.02559e-11
-5.95717e-11
-1.11811e-11
-1.24221e-10
-8.17226e-11
1.44415e-11
-1.7373e-10
-9.71218e-11
1.34597e-11
-8.21451e-11
-4.87553e-11
-1.62266e-11
-1.07375e-10
-7.35012e-11
1.13095e-11
-1.40594e-10
-7.82104e-11
5.5225e-12
-5.99542e-11
-3.65055e-11
7.79629e-12
-7.52559e-11
-5.26633e-11
9.99197e-12
-8.3583e-11
-5.5064e-11
9.92057e-12
-9.11383e-11
-5.98261e-11
8.46532e-12
-9.07875e-11
-5.80136e-11
1.03216e-11
-9.07497e-11
-6.06755e-11
6.75335e-12
-9.11934e-11
-5.71844e-11
1.068e-11
-9.15214e-11
-5.83674e-11
5.59981e-12
-8.8803e-11
-5.48248e-11
1.15706e-11
-8.60691e-11
-5.49958e-11
6.12677e-12
-8.18035e-11
-4.62421e-11
6.18893e-12
-6.91075e-11
-3.68301e-11
4.67186e-11
-1.73152e-10
-8.57163e-11
1.21235e-11
-1.37031e-10
-6.48217e-11
5.75883e-12
-1.16114e-10
-6.79549e-11
-3.17404e-12
-1.06347e-10
-5.71429e-11
4.64756e-12
-9.94e-11
-5.54733e-11
3.4218e-12
-8.30484e-11
-4.65829e-11
-3.5513e-13
-6.57743e-11
-3.48796e-11
2.8396e-11
-1.45372e-10
-7.65701e-11
2.39854e-14
-1.04017e-10
-5.47943e-11
-3.52732e-12
-7.80758e-11
-4.09988e-11
3.04647e-11
-1.55504e-10
-8.11162e-11
-2.09939e-12
-1.10042e-10
-5.40822e-11
-3.44175e-12
-7.93549e-11
-4.11401e-11
2.34447e-11
-1.47189e-10
-8.04049e-11
-2.48707e-12
-1.01533e-10
-5.19184e-11
-1.23008e-11
-7.4455e-11
-3.89462e-11
1.51884e-11
-1.26765e-10
-5.90932e-11
2.57223e-11
-1.8257e-10
-1.13337e-10
-7.43841e-12
-1.06423e-10
-5.84122e-11
-1.26599e-11
-7.01289e-11
-3.9834e-11
6.7916e-12
-1.15943e-10
-5.66047e-11
2.37477e-11
-1.62658e-10
-8.22853e-11
2.58295e-11
-2.17272e-10
-1.1495e-10
-1.03547e-11
-1.16474e-10
-5.91064e-11
-1.77605e-11
-7.01131e-11
-4.16918e-11
3.01913e-12
-1.04369e-10
-5.37488e-11
8.00506e-12
-1.42072e-10
-7.28507e-11
1.37084e-11
-1.70318e-10
-7.715e-11
-1.88308e-10
-7.71946e-11
-4.28842e-11
-9.81383e-12
-3.30411e-11
-2.84249e-11
-9.73069e-12
-2.85894e-11
-2.40774e-11
-8.5146e-12
-1.65674e-11
-2.27646e-11
-8.43396e-12
-1.43749e-11
-2.05752e-11
-7.65256e-12
-1.3714e-11
-2.02182e-11
-6.82444e-12
-1.0566e-11
-1.83826e-11
-6.1356e-12
-1.02313e-11
-1.60994e-11
-4.96643e-12
-9.36625e-12
-1.43299e-11
-2.70233e-12
-5.89336e-12
6.82385e-12
-1.96992e-11
2.20117e-11
-2.34674e-11
1.00407e-11
-7.44725e-12
1.52554e-12
1.14758e-11
-8.15339e-12
1.74853e-12
1.2394e-11
-9.74198e-12
2.68484e-12
1.23684e-11
-1.05078e-11
3.70623e-12
1.35715e-11
-1.18025e-11
2.94383e-12
1.36609e-11
-1.23286e-11
3.80131e-12
1.58001e-11
-1.30605e-11
2.40092e-12
2.40939e-11
-1.17682e-11
-6.26422e-12
-1.39211e-11
-1.18152e-11
-1.79076e-11
-4.11879e-11
-1.88479e-11
-2.07699e-11
-5.47727e-11
-3.22972e-11
-8.6846e-12
-7.38749e-11
-5.95077e-11
-1.7167e-11
-8.03004e-11
-7.25954e-11
-3.393e-11
-2.6012e-11
-5.33264e-11
-2.20409e-11
-2.48922e-11
-6.72942e-11
-2.22502e-11
-5.48177e-12
2.74264e-11
-2.17369e-11
-2.23285e-11
-7.80845e-12
2.47769e-11
-1.6893e-11
-2.34031e-11
-9.0622e-12
-1.59483e-11
2.60845e-11
-2.40206e-11
-8.68244e-12
2.53467e-11
-1.60457e-11
-2.49821e-11
-7.90492e-12
2.26936e-11
-1.38248e-11
-2.37719e-11
-6.84405e-12
1.9353e-11
-1.37164e-11
-2.18281e-11
-5.63515e-12
1.61838e-11
-1.24893e-11
-1.94256e-11
-3.15726e-12
9.88295e-12
-9.125e-12
8.0942e-12
-2.30643e-11
-3.20155e-11
2.75595e-11
1.13987e-11
-7.74553e-12
1.2804e-12
1.30287e-11
-8.49345e-12
1.22403e-12
1.40042e-11
-1.00186e-11
2.1941e-12
1.33756e-11
-1.11061e-11
3.8251e-12
1.34914e-11
-1.23442e-11
3.54082e-12
1.25369e-11
-1.2196e-11
4.0826e-12
1.41212e-11
-1.13013e-11
1.90201e-12
-9.20934e-12
-7.04771e-12
4.35083e-11
-1.67881e-11
-2.84875e-11
-7.45921e-12
-2.2088e-11
-2.10507e-11
-2.56357e-11
-5.90125e-11
-3.05658e-11
-3.04317e-11
-7.08756e-11
-4.12636e-11
-3.4555e-11
-8.31939e-11
-5.00673e-11
-3.70417e-11
-9.25152e-11
-5.4247e-11
-3.76911e-11
-9.99125e-11
-5.75291e-11
-3.77401e-11
-1.04762e-10
-5.92301e-11
-3.6964e-11
-1.10048e-10
-6.17999e-11
-3.60544e-11
-1.13325e-10
-6.32802e-11
-3.43294e-11
-1.17971e-10
-6.55192e-11
-3.23602e-11
-1.19763e-10
-6.66114e-11
-2.96904e-11
-1.2198e-10
-6.82633e-11
-2.6906e-11
-1.20066e-10
-6.82557e-11
-2.21463e-11
-1.16773e-10
-6.72149e-11
-1.71779e-11
-1.0601e-10
-6.12625e-11
-7.0021e-12
-9.89504e-11
-4.7223e-11
3.22896e-12
-6.72626e-11
-3.64067e-11
-3.1707e-11
-6.91497e-11
-3.33859e-11
-5.09908e-11
-9.6145e-11
-9.39182e-11
-7.36669e-12
-1.06821e-10
-6.76773e-11
8.08897e-12
-6.72708e-11
-3.67716e-11
-2.44364e-11
-7.13296e-11
-3.87974e-11
-4.75962e-11
-1.01524e-10
-1.14248e-10
-2.2623e-12
-1.19752e-10
-7.21751e-11
1.45386e-11
-6.77043e-11
-3.45209e-11
-8.57347e-12
-6.30806e-11
-4.68962e-11
-3.01457e-11
-9.62125e-11
-1.18108e-10
3.53465e-12
-1.33743e-10
-6.86291e-11
1.7945e-11
-7.94588e-11
-3.04043e-11
-2.33071e-12
-4.65352e-11
-6.17083e-11
-1.067e-11
-6.30521e-11
-1.10276e-10
1.99355e-11
-8.67726e-11
-4.035e-11
-1.59917e-12
-6.23705e-11
-4.81201e-11
-5.26102e-12
-5.79841e-11
-1.08687e-10
2.04997e-11
-7.92995e-11
-3.67177e-11
2.33126e-12
-4.66085e-11
-5.94518e-11
-6.98326e-12
-5.24632e-11
-1.11965e-10
1.81659e-11
-7.53943e-11
-3.18998e-11
2.52911e-12
-5.07431e-11
-4.10012e-11
-5.90922e-12
-4.18848e-11
-9.02798e-11
2.99311e-12
-4.6592e-11
-2.22649e-11
6.74999e-12
-5.36403e-11
-2.53744e-11
6.56869e-12
-6.10535e-11
-2.23461e-11
7.47267e-12
-6.41901e-11
-2.78535e-11
5.06467e-12
-6.38144e-11
-2.45637e-11
6.443e-12
-6.40413e-11
-2.80886e-11
4.65221e-12
-6.53132e-11
-2.40879e-11
6.2245e-12
-6.55231e-11
-2.75723e-11
4.0823e-12
-6.38706e-11
-2.27888e-11
5.09815e-12
-6.15149e-11
-2.55717e-11
3.65161e-12
-6.0658e-11
-1.96977e-11
2.15399e-11
-6.21248e-11
-2.48725e-11
1.75777e-11
-1.17678e-10
-5.15144e-11
5.97296e-12
-3.28338e-11
-9.25926e-11
4.03222e-12
-4.10663e-11
-7.31077e-11
-9.92405e-12
-3.08281e-11
-6.15625e-11
2.9164e-12
-8.40147e-11
-2.82262e-11
2.28419e-12
-6.41818e-11
-1.8233e-11
1.66086e-11
-5.76599e-11
-2.24394e-11
8.71834e-12
-4.16032e-11
-9.58783e-11
-1.0497e-11
-2.77255e-11
-5.7075e-11
1.69231e-11
-7.57505e-11
-2.97452e-11
9.01896e-12
-4.47921e-11
-1.02806e-10
-1.21813e-11
-2.88301e-11
-6.00097e-11
1.51246e-11
-7.70469e-11
-2.96132e-11
6.54214e-12
-4.03389e-11
-9.82644e-11
-1.27301e-11
-2.76524e-11
-5.46057e-11
-2.78378e-13
-6.63946e-11
-2.05119e-11
2.60681e-11
-1.11986e-10
-4.11217e-11
6.14292e-12
-5.82113e-11
-1.04427e-10
-1.52397e-11
-2.98254e-11
-5.52124e-11
-1.72897e-12
-6.41247e-11
-1.95142e-11
8.40043e-12
-1.01736e-10
-2.43322e-11
3.2336e-11
-1.31731e-10
-5.48585e-11
5.12999e-12
-1.22804e-10
-6.72546e-11
-1.84207e-11
-3.31928e-11
-5.97267e-11
-4.36131e-12
-6.58708e-11
-1.83014e-11
3.35135e-12
-9.31715e-11
-1.89059e-11
9.08126e-12
-1.15353e-10
-3.2443e-11
1.19064e-11
-1.33405e-10
-3.97337e-11
-1.46468e-10
-4.07325e-11
-1.53099e-11
-1.10527e-10
-3.43855e-11
-1.69964e-11
-9.57645e-11
-3.59492e-11
-7.34344e-12
-1.07545e-10
-1.74578e-11
-7.51013e-12
-8.65331e-11
-6.46806e-12
-3.59698e-12
-6.4714e-11
-5.0655e-12
9.8156e-12
-4.64911e-11
-5.73343e-12
3.88136e-11
1.18477e-11
-3.84789e-11
-1.04783e-11
4.69259e-11
-2.13766e-11
-8.52432e-11
-1.3259e-11
-9.77686e-12
-9.61214e-11
-1.72114e-11
-4.26514e-12
-6.3552e-11
-6.08101e-12
7.4465e-12
-3.98958e-11
-5.36034e-12
3.35456e-11
9.26377e-12
-3.32243e-11
-8.3833e-12
3.97898e-11
-2.10371e-11
-6.83414e-11
-1.33403e-11
-4.6456e-12
-6.75323e-11
-1.52518e-11
2.77293e-13
-2.95571e-11
-5.7628e-12
3.03976e-11
2.18673e-12
-4.10387e-11
1.08214e-13
3.90196e-11
-5.56175e-12
-6.56804e-11
-3.6165e-12
-4.96963e-13
-2.95168e-11
-7.11829e-12
3.15707e-11
5.1655e-13
-4.18756e-11
-1.04596e-13
4.09649e-11
-5.84078e-12
-6.52159e-11
-4.17675e-12
-5.77426e-13
-2.9081e-11
-6.92646e-12
3.07441e-11
8.58109e-13
-3.82956e-11
-8.15187e-13
3.76735e-11
7.11762e-12
-5.5226e-11
-8.69275e-12
-5.43011e-12
-4.31409e-11
-8.4972e-12
-1.96808e-11
-5.23449e-11
-1.74207e-11
-2.13071e-12
-3.20801e-11
-1.2325e-11
2.68538e-11
-1.94669e-12
-3.42538e-11
-1.74885e-12
3.58156e-11
5.1507e-13
-3.91765e-11
-7.25655e-12
4.39719e-11
1.08159e-14
-4.55417e-11
-2.21771e-12
4.82614e-11
6.37061e-12
-5.90224e-11
-9.46506e-12
-4.39083e-12
-3.98351e-11
-1.00691e-11
-4.05498e-12
-4.40134e-11
-1.78408e-11
-5.80441e-12
-5.10006e-11
-1.11294e-11
-4.14665e-12
-4.73091e-11
-1.98765e-11
-5.955e-12
-5.10307e-11
-1.24851e-11
-3.95372e-12
-4.57124e-11
-2.03362e-11
-8.11452e-12
-4.69941e-11
-1.26697e-11
-1.41525e-11
-3.52074e-11
-2.29522e-11
-6.68667e-12
-5.81543e-11
-1.03762e-11
-4.23925e-12
-4.2041e-11
-1.40542e-11
-7.70048e-12
-3.58205e-11
-7.3218e-12
-1.24237e-12
-3.03118e-11
-7.73942e-12
3.15933e-11
2.08467e-13
-2.43889e-11
-6.57611e-12
2.95098e-11
-9.19074e-12
-5.94325e-11
-6.57496e-12
-2.16296e-12
-3.8826e-11
-8.22734e-12
4.00246e-11
1.62063e-13
-2.88708e-11
-8.18024e-12
3.47213e-11
-9.18345e-12
-6.18677e-11
-8.10102e-12
-1.65406e-12
-3.81992e-11
-7.705e-12
3.8374e-11
2.2807e-12
-2.98916e-11
-9.17847e-12
3.51314e-11
-7.24352e-12
-6.59358e-11
-1.13272e-11
-1.31228e-12
-3.84493e-11
-7.59411e-12
4.01107e-11
4.40404e-12
-3.01705e-11
-1.04036e-11
3.48538e-11
2.43674e-11
-7.3345e-11
-2.60952e-11
-9.03205e-12
-7.11763e-11
-2.91917e-11
-6.673e-12
-3.40618e-11
-1.29447e-11
4.46448e-11
7.40884e-12
-3.58673e-11
-1.39678e-11
3.57437e-11
1.74206e-11
-5.83071e-11
-1.94264e-11
5.84911e-12
-9.15671e-11
-1.66362e-11
2.98158e-12
-4.75841e-11
-4.18655e-13
5.08683e-11
1.22674e-11
-2.8357e-11
-1.39096e-11
3.29738e-11
1.98816e-11
-5.53261e-11
-1.95749e-11
1.13713e-11
-8.51953e-11
-1.31424e-11
5.58756e-12
-4.32355e-11
3.20308e-12
4.58102e-11
1.58427e-11
-2.49124e-11
-1.37559e-11
2.84067e-11
2.17133e-11
-5.03801e-11
-2.27743e-11
2.11159e-11
-7.27607e-11
-2.56212e-11
2.40133e-11
-8.43864e-11
-2.45483e-11
2.74124e-11
-9.33607e-11
-2.6842e-11
2.96828e-11
-9.66873e-11
-2.56836e-11
3.20512e-11
-9.92003e-11
-2.51809e-11
3.3342e-11
-9.80113e-11
-2.30754e-11
3.47029e-11
-9.67791e-11
-2.25875e-11
3.52666e-11
-9.29332e-11
-2.09898e-11
3.57861e-11
-8.95872e-11
-2.10113e-11
3.51629e-11
-8.434e-11
-1.98307e-11
3.42292e-11
-7.9155e-11
-1.98565e-11
3.1697e-11
-7.20881e-11
-1.79245e-11
2.83763e-11
-6.34693e-11
-1.64317e-11
2.28547e-11
-5.33606e-11
-1.20195e-11
-4.15463e-11
-1.14234e-11
1.81574e-11
-3.94607e-11
-2.34032e-11
3.14287e-12
-2.62022e-11
4.55866e-12
-1.87471e-11
-2.74767e-11
7.81508e-12
-2.33086e-11
-4.2166e-11
7.25453e-12
5.21015e-11
-5.63437e-11
-2.94571e-11
1.03764e-11
-2.87485e-11
4.06692e-12
-3.21366e-11
-6.37897e-11
3.68807e-12
-3.48687e-11
-7.23856e-11
3.00696e-12
-3.62943e-11
-7.9648e-11
1.89697e-12
-3.73797e-11
-8.59363e-11
2.65951e-12
-3.79178e-11
-9.12155e-11
2.14298e-12
-3.81374e-11
-9.56975e-11
2.96108e-12
-3.68743e-11
-9.91553e-11
1.08964e-12
-3.55542e-11
-1.00388e-10
1.03172e-12
-3.29615e-11
-9.98577e-11
-1.95905e-12
-3.11554e-11
-9.65886e-11
-1.92616e-12
-2.799e-11
-9.15088e-11
-5.03957e-12
-2.56785e-11
-8.24954e-11
-4.22364e-12
-2.06905e-11
-6.91529e-11
-8.61344e-12
-1.44485e-11
-4.99906e-11
-6.64346e-12
-9.69661e-12
-2.57255e-11
-3.94684e-12
-2.54053e-11
-4.5471e-11
1.79361e-11
-2.0382e-11
-9.00003e-11
-2.37531e-13
-1.18641e-11
-6.0027e-11
-3.82837e-12
-1.52813e-12
-3.64767e-11
-2.22494e-12
-1.73976e-11
-4.10506e-11
9.33327e-12
-3.20142e-11
-2.00516e-11
-5.69108e-11
-9.38967e-12
-6.82562e-11
-1.26886e-11
-6.00334e-12
-4.06757e-11
1.41303e-12
1.74413e-11
-1.09667e-12
-1.95019e-11
-2.85188e-12
-2.95881e-11
-5.82038e-11
4.76073e-12
-3.64075e-11
9.60124e-13
-9.89769e-13
-7.3164e-11
5.556e-12
6.56519e-12
-3.89341e-11
1.20039e-12
1.86931e-12
-4.11151e-12
-2.96445e-11
-8.47973e-12
-5.97417e-12
-4.96218e-11
7.69324e-12
-4.2505e-11
-3.56722e-12
4.43806e-12
-5.14271e-12
-2.98026e-11
-5.46292e-12
-3.37143e-12
-4.86067e-11
8.53518e-12
-3.99669e-11
-2.91049e-12
4.84704e-12
-6.34572e-12
-2.87932e-11
-4.95869e-12
-3.0278e-12
-4.66096e-11
1.41352e-12
-2.8026e-11
-2.74008e-12
5.95818e-12
-3.37017e-11
-1.156e-12
1.03688e-11
-4.49212e-11
4.68082e-12
5.58098e-12
-8.46156e-12
-2.87932e-11
-9.70422e-12
-8.18483e-14
-4.27918e-11
1.78078e-11
-6.81546e-13
-2.38911e-11
-2.9416e-12
-2.00162e-11
-4.43742e-11
1.38987e-12
-2.37217e-11
1.63494e-12
2.22033e-11
6.78427e-13
-2.46985e-11
3.20267e-12
-2.14204e-11
-5.31163e-11
2.29529e-12
-2.49128e-11
1.87608e-12
2.32296e-11
9.73618e-13
-2.56621e-11
3.75025e-12
-2.13139e-11
-5.37644e-11
3.07466e-12
-2.53399e-11
1.92518e-12
2.195e-11
2.18398e-12
-2.51022e-11
4.03918e-12
-1.67921e-11
-4.51054e-11
1.52545e-11
-2.56995e-11
-4.16404e-12
2.9621e-12
-7.90531e-13
-4.59407e-11
-5.77019e-12
9.60834e-13
-3.77739e-11
1.21191e-12
-5.20317e-11
5.87155e-12
9.79627e-13
-4.15198e-11
7.49478e-12
-1.61695e-12
-3.4947e-11
5.46315e-12
2.49972e-11
1.23135e-12
-3.03364e-11
2.48867e-12
-1.83066e-11
-5.21815e-11
1.41267e-11
-2.66877e-11
-4.51416e-12
2.21866e-12
-4.41111e-11
7.92873e-13
-4.65025e-12
1.2504e-12
-3.26796e-11
1.18659e-11
-4.39394e-11
-1.65786e-12
1.8483e-12
-5.33714e-11
-1.82595e-12
-5.32747e-12
1.31845e-12
-3.60205e-11
1.17584e-11
-4.60532e-11
-5.49435e-13
8.01923e-13
-1.37278e-12
-5.33503e-11
-6.26286e-12
5.52537e-13
-3.45281e-11
1.12744e-12
-4.19602e-11
5.01274e-12
-7.00467e-12
-7.13844e-11
1.19852e-11
2.75383e-11
-1.79528e-13
-3.75265e-11
3.16207e-12
-1.89902e-11
-5.50379e-11
4.3347e-12
-2.33322e-11
-1.71857e-13
5.50215e-12
-5.01521e-11
9.08898e-12
1.77169e-11
-7.87535e-11
2.98777e-12
-9.57322e-12
-7.20641e-11
3.23526e-12
3.2714e-11
-6.74225e-12
-3.52774e-12
-3.20172e-11
-2.5225e-11
-6.57842e-11
4.31145e-12
-3.76311e-11
1.35318e-12
5.02179e-12
-5.84001e-11
1.11999e-11
1.5157e-11
-7.76507e-11
2.80341e-12
1.3311e-11
-1.35247e-11
-7.116e-11
-1.64874e-11
4.73353e-12
-8.24786e-11
2.81701e-11
-8.8806e-12
-6.94449e-12
-2.88319e-11
8.66652e-12
-1.95489e-11
-5.67131e-11
-3.36314e-11
-7.46279e-11
-7.7792e-12
-7.36782e-11
1.09597e-11
-6.85778e-12
-6.88447e-11
5.6848e-11
1.10764e-11
-5.93378e-12
-6.08716e-11
4.94188e-11
1.05298e-11
-4.15799e-12
-5.10001e-11
3.90743e-11
1.01508e-11
-2.80268e-12
-3.82749e-11
2.65028e-11
1.04169e-11
3.9608e-12
-2.46055e-11
1.78828e-12
1.60539e-11
5.53734e-12
-2.49001e-11
-4.85486e-13
2.38087e-11
-1.58235e-11
-5.36503e-11
7.25432e-11
2.46849e-12
-4.03132e-12
-6.74355e-11
5.13144e-11
4.32971e-12
-2.82339e-12
-4.53873e-11
3.2948e-11
1.12314e-11
4.48821e-12
-2.75143e-11
2.15972e-12
1.80437e-11
6.09782e-12
-2.5103e-11
-9.37656e-13
2.44301e-11
-1.11697e-11
-5.01353e-11
6.45976e-11
2.80679e-12
-4.02922e-12
-4.85626e-11
3.87609e-11
2.6619e-12
-1.58587e-13
-2.11265e-11
-6.23441e-13
1.78799e-11
3.80491e-12
-3.24529e-11
3.22074e-12
2.52667e-11
-1.53392e-12
-5.73297e-11
5.28658e-11
9.80497e-12
-7.05731e-13
-2.51468e-11
2.13931e-11
2.92594e-12
-1.84155e-12
-3.74361e-11
3.13845e-11
7.18416e-12
-1.73022e-12
-5.99551e-11
5.131e-11
8.53534e-12
-9.12556e-13
-2.4705e-11
2.11072e-11
2.78045e-12
-2.41196e-12
-3.59941e-11
3.06272e-11
6.86283e-12
-1.93209e-12
-5.63812e-11
4.85918e-11
7.31196e-12
-8.43855e-13
-2.25077e-11
1.9005e-11
2.4147e-12
-1.50525e-13
-3.13907e-11
2.51774e-11
5.51721e-12
6.07674e-12
-4.28803e-11
3.04398e-11
6.21529e-12
-7.23843e-13
-2.96241e-11
3.7037e-11
-6.14441e-13
-1.09347e-11
-3.78281e-11
4.80219e-11
1.83596e-14
-9.9889e-13
-2.11271e-11
-3.72342e-12
1.4915e-11
1.22372e-12
-2.37036e-11
1.92935e-12
1.95489e-11
-3.59535e-13
-2.66387e-11
2.40051e-11
4.21866e-12
-8.24814e-13
-3.09757e-11
2.67435e-11
4.69435e-12
-2.2198e-13
-3.23419e-11
2.90595e-11
2.68111e-12
-1.21369e-12
-3.36433e-11
3.15563e-11
3.07496e-12
-7.86254e-13
-3.35085e-11
3.10462e-11
2.03617e-12
-1.26266e-12
-3.38033e-11
3.10506e-11
3.22489e-12
-6.22079e-13
-3.31396e-11
3.06816e-11
1.81859e-12
-1.20592e-12
-3.17167e-11
2.98282e-11
2.46745e-12
-7.70887e-13
-2.96117e-11
2.8045e-11
1.13273e-12
-1.13517e-12
-2.63796e-11
2.46221e-11
2.1166e-12
-5.25313e-13
-2.25329e-11
2.06873e-11
1.23654e-12
-8.29566e-13
-1.82625e-11
1.67615e-11
1.80155e-12
-1.71387e-12
-5.25383e-11
4.96858e-11
3.72672e-12
-1.50255e-12
-3.72232e-11
3.65147e-11
4.96854e-13
-1.87478e-12
-2.98771e-11
2.83343e-11
1.90823e-12
-8.67988e-13
-2.3887e-11
2.23285e-11
5.51775e-13
-9.58323e-13
-1.77231e-11
1.68112e-11
9.98575e-13
5.14369e-13
-4.46224e-11
4.12166e-11
1.92413e-12
2.37336e-13
-2.7457e-11
2.4858e-11
2.87675e-12
8.82452e-13
-1.93168e-11
1.779e-11
8.77609e-13
2.91686e-12
-4.72602e-11
4.3926e-11
1.29033e-12
1.45542e-12
-2.80945e-11
2.5948e-11
3.60704e-12
3.58755e-12
-1.886e-11
1.72372e-11
-5.12453e-13
8.44166e-12
-4.43349e-11
4.30505e-11
-3.5757e-12
1.00946e-11
-7.81858e-11
7.95409e-11
-3.0163e-12
3.72243e-12
-3.9698e-11
4.03012e-11
5.76771e-12
6.90089e-12
-2.22808e-11
2.24032e-11
-3.30554e-12
1.34397e-11
-4.51636e-11
4.53386e-11
-6.72186e-12
1.94277e-11
-7.16382e-11
7.1129e-11
-5.48707e-12
7.40695e-12
-3.61243e-11
3.50606e-11
1.30838e-11
1.25217e-11
-2.01938e-11
1.89494e-11
-3.87316e-12
2.25195e-11
-4.09182e-11
4.0239e-11
-9.32451e-12
3.15171e-11
-6.32754e-11
6.54663e-11
-1.11942e-11
3.57427e-11
-9.38457e-11
9.68886e-11
-7.27559e-12
1.24625e-11
-4.576e-11
4.80311e-11
2.10071e-11
1.70335e-11
-2.55673e-11
2.69928e-11
-5.99859e-12
2.31532e-11
-4.88055e-11
5.18971e-11
-9.21577e-12
2.94271e-11
-6.70551e-11
7.14546e-11
-1.0679e-11
3.29318e-11
-8.21723e-11
8.72334e-11
-8.57258e-12
3.72179e-11
-9.38248e-11
9.83155e-11
-8.78354e-12
3.89412e-11
-1.02276e-10
1.05464e-10
-4.91769e-12
4.18651e-11
-1.07616e-10
1.09788e-10
-5.10457e-12
4.22272e-11
-1.09783e-10
1.10737e-10
-1.32749e-12
4.34941e-11
-1.09779e-10
1.1003e-10
-1.52806e-12
4.28319e-11
-1.07497e-10
1.06862e-10
1.28738e-12
4.25895e-11
-1.03969e-10
1.03209e-10
9.90062e-13
4.08243e-11
-9.83548e-11
9.72142e-11
2.89448e-12
3.85441e-11
-9.06542e-11
9.0502e-11
2.42229e-12
3.49227e-11
-8.07379e-11
8.04133e-11
3.93562e-12
3.05265e-11
-6.93099e-11
7.02115e-11
3.48577e-12
2.47751e-11
-5.55726e-11
4.97199e-12
1.90804e-11
-4.10932e-11
4.61295e-12
-2.71709e-11
6.42139e-12
-1.73192e-11
-2.87995e-11
7.83463e-12
-2.39178e-11
-4.27224e-11
8.22154e-12
-3.00819e-11
-5.76562e-11
8.24341e-12
-3.47898e-11
-7.21978e-11
7.5913e-12
-3.9484e-11
-8.43369e-11
8.28701e-12
-4.10734e-11
-9.62118e-11
7.13862e-12
-4.30136e-11
-1.04121e-10
7.69753e-12
-4.30407e-11
-1.09784e-10
5.83497e-12
-4.38487e-11
-1.12844e-10
6.14837e-12
-4.24397e-11
-1.14557e-10
3.36257e-12
-4.21291e-11
-1.13683e-10
3.58301e-12
-3.90962e-11
-1.10532e-10
-1.2297e-13
-3.72752e-11
-1.04144e-10
4.01938e-14
-3.28469e-11
-9.39963e-11
-4.25878e-12
-2.89271e-11
-8.15021e-11
-4.59264e-12
-2.33156e-11
-6.53745e-11
-7.29396e-12
-1.72732e-11
-4.69234e-11
-7.92619e-12
-1.25892e-11
-2.47699e-11
-5.48332e-12
-3.58407e-11
-4.43457e-11
2.18367e-11
-3.2252e-11
-9.24256e-11
-5.00987e-12
-2.25738e-11
-6.33299e-11
-9.62773e-12
-1.3399e-11
-4.2239e-11
-7.85794e-12
-8.46663e-12
-2.11025e-11
-4.02699e-12
-2.19048e-11
-3.7806e-11
1.51195e-11
-1.59705e-11
-7.50743e-11
-2.50101e-12
-8.91245e-12
-4.69616e-11
-5.26479e-12
-5.23122e-12
-2.28522e-11
-3.11287e-12
-1.37816e-11
-4.05045e-11
9.35825e-12
-9.57103e-12
-7.97299e-11
-2.66924e-12
-4.84089e-12
-4.58903e-11
-3.18017e-12
-2.37632e-12
-2.02136e-11
-1.11364e-12
-5.01625e-12
-3.0449e-11
4.99475e-12
-2.61964e-12
-5.09857e-11
1.3213e-12
-1.09008e-12
-2.07602e-11
-9.07695e-14
-1.98876e-12
-2.9663e-11
3.10622e-12
-1.81922e-13
-4.79337e-11
1.49552e-12
2.87431e-13
-1.88936e-11
6.97831e-13
5.0579e-13
-2.52504e-11
1.14674e-12
3.96742e-13
-3.14636e-11
1.68902e-12
3.36047e-13
-3.95115e-11
2.35034e-12
-1.41686e-13
-5.56763e-11
3.60605e-12
4.61052e-16
-1.95192e-11
1.11063e-12
2.60822e-13
-2.435e-11
1.55875e-12
2.45263e-13
-2.85476e-11
2.17762e-12
5.60861e-13
-3.23422e-11
2.41621e-12
4.82415e-13
-3.45375e-11
2.89469e-12
6.66347e-13
-3.58241e-11
2.50267e-12
2.60552e-13
-3.67262e-11
3.32458e-12
6.29603e-15
-3.65193e-11
3.26711e-12
-4.64191e-13
-3.65307e-11
3.35477e-12
-9.51642e-13
-3.55585e-11
3.70651e-12
-8.56763e-13
-3.44781e-11
3.40404e-12
-2.30688e-13
-3.14896e-11
4.22711e-12
7.4714e-14
-2.90503e-11
5.03865e-12
-1.41691e-12
-2.44108e-11
4.77764e-12
1.67475e-11
7.32737e-13
-2.09054e-11
2.00651e-12
-1.35148e-11
-3.71896e-11
4.06541e-12
-1.64508e-11
-3.95884e-13
1.58723e-12
-4.87321e-11
8.33256e-12
1.18292e-12
-3.55653e-11
4.57624e-12
9.47254e-12
-2.86446e-11
-2.15107e-12
1.08264e-12
-4.50141e-11
-2.97513e-12
-4.60881e-12
-2.98742e-11
-4.30641e-13
1.00544e-11
-3.79807e-11
-1.38614e-12
-4.00472e-15
-4.81223e-11
-1.77295e-12
-5.62216e-12
-3.07309e-11
-1.08903e-12
8.79834e-12
-3.90128e-11
-5.52724e-13
-5.53652e-13
-4.71478e-11
-8.28294e-13
-5.17071e-12
-2.84903e-11
6.53079e-13
5.53971e-13
-3.20501e-11
5.20001e-12
-4.16124e-12
-5.59618e-11
1.21161e-11
2.14828e-11
1.52444e-13
-2.96658e-11
3.86835e-12
-1.43018e-11
-3.94537e-11
3.01334e-12
-1.80037e-11
8.41698e-13
3.63342e-12
-3.77152e-11
9.58121e-12
4.98592e-12
-5.58905e-11
9.15157e-12
-3.65463e-12
-7.39621e-11
1.51679e-11
2.37975e-11
4.58557e-13
-3.292e-11
5.00882e-12
-1.38848e-11
-4.08687e-11
3.34714e-12
-1.71472e-11
3.73983e-13
3.98111e-12
-3.36675e-11
8.42797e-12
6.39936e-12
-4.88975e-11
8.20473e-12
8.19051e-12
-6.22952e-11
9.50485e-12
9.39569e-12
-7.2744e-11
1.06684e-11
9.10494e-12
-8.03378e-11
1.17849e-11
-8.82133e-11
7.84633e-12
-2.95079e-10
6.84028e-10
-5.83544e-09
-3.02403e-10
5.83783e-10
-5.60883e-09
-3.04232e-10
4.87164e-10
-5.32134e-09
3.92501e-10
-5.07623e-09
3.01855e-10
4.36507e-10
-5.25159e-09
2.99416e-10
5.3882e-10
-5.50245e-09
2.91573e-10
6.43694e-10
-5.80708e-09
7.51096e-10
-6.04747e-09
-2.39273e-10
1.81171e-09
-9.4242e-09
-2.57342e-10
1.74446e-09
-9.20263e-09
-1.62951e-09
1.66384e-09
-2.95184e-10
-8.87511e-09
-1.58444e-09
-2.74845e-10
-8.73799e-09
-2.59234e-10
-1.53262e-09
-8.54524e-09
2.5815e-10
1.2104e-10
-4.27536e-09
2.76094e-10
1.97804e-10
-4.5393e-09
2.88698e-10
2.83903e-10
-4.85193e-09
2.95857e-10
3.82282e-10
-5.10537e-09
2.99278e-10
4.81068e-10
-5.43452e-09
2.96821e-10
5.91166e-10
-5.7031e-09
2.88628e-10
7.02691e-10
-6.01633e-09
8.17057e-10
-6.27597e-09
-3.3114e-12
4.15186e-11
1.35671e-11
-2.95817e-12
3.39462e-11
1.51204e-11
-2.95397e-12
5.33909e-12
3.37314e-11
5.33717e-12
1.53595e-11
2.85238e-12
8.56808e-12
2.33874e-11
-1.82302e-12
-2.47953e-11
-1.58897e-11
5.37323e-12
-5.85654e-11
-5.07675e-12
3.33116e-12
-3.40031e-12
1.2007e-11
6.01804e-12
2.52882e-12
2.10014e-11
8.03945e-12
-2.08497e-12
2.86188e-11
-2.85559e-11
-1.52548e-11
5.39682e-12
-6.08546e-11
-2.53126e-12
1.72294e-12
6.48991e-12
6.40765e-12
1.45747e-12
1.69647e-12
-3.41922e-11
-1.30484e-11
-5.81623e-11
1.2847e-12
-4.87658e-12
2.73379e-12
-6.35558e-13
-1.10343e-14
1.71633e-11
3.30404e-12
3.76237e-12
2.36803e-11
-4.36573e-12
1.29278e-11
-7.69823e-13
1.32753e-13
1.73788e-11
2.60142e-12
3.68261e-12
2.35711e-11
-4.40452e-12
1.16599e-11
-7.36559e-13
1.12392e-13
1.52249e-11
1.7278e-12
2.64217e-12
2.00687e-11
-2.15204e-13
5.69621e-12
-3.21109e-13
6.80356e-12
5.95093e-12
6.80347e-12
-1.70882e-12
7.25255e-13
-3.4588e-11
-1.24273e-11
-4.22717e-11
9.59148e-13
-1.2717e-12
-3.32274e-12
1.61723e-11
2.50867e-13
3.07394e-12
2.21438e-11
-1.699e-12
5.31102e-12
-2.73785e-12
7.48892e-12
-1.27635e-12
4.24521e-12
-1.99668e-12
6.10428e-12
-6.28713e-13
4.40113e-12
-6.1683e-13
5.11327e-12
-1.60898e-13
3.86671e-12
-3.83022e-12
4.3955e-12
-4.20752e-13
-5.61544e-15
1.72828e-11
1.02036e-12
5.18619e-13
1.47979e-11
-3.868e-12
9.64335e-12
-2.21711e-12
1.1608e-12
-5.98358e-12
4.06753e-12
-5.78738e-13
-9.33113e-13
1.78554e-11
1.03512e-12
-5.45063e-13
1.57384e-11
-5.63041e-12
7.90615e-12
-1.94907e-13
5.07866e-13
1.89136e-11
2.39997e-12
-6.08471e-13
1.57996e-11
-4.02935e-12
7.84415e-12
4.1975e-13
8.50282e-13
2.06469e-11
4.06048e-12
-1.25491e-12
1.48479e-11
4.55942e-12
3.61054e-12
5.74925e-12
5.17331e-12
2.37839e-12
7.26115e-12
5.41428e-12
-1.40596e-13
1.19846e-11
-1.92027e-12
1.11494e-11
3.69435e-12
4.62848e-12
1.02253e-11
3.13547e-11
1.24083e-11
-3.57587e-12
1.47407e-11
1.77352e-11
-1.57054e-12
2.66511e-11
-3.48606e-12
3.14157e-11
2.1133e-12
1.16429e-11
2.23267e-11
1.67046e-11
-3.79837e-12
2.318e-11
-4.5798e-12
2.83583e-11
-2.88983e-12
3.10926e-11
1.99314e-12
3.54904e-11
2.39519e-12
3.70779e-11
7.27158e-12
3.9739e-11
7.25418e-12
3.96435e-11
1.04329e-11
4.0808e-11
9.69439e-12
4.00615e-11
1.18942e-11
4.0452e-11
1.15897e-11
3.88695e-11
1.2843e-11
3.78282e-11
1.18772e-11
3.37906e-11
1.20515e-11
1.07428e-11
2.41164e-10
-1.18659e-10
3.66586e-11
1.03865e-10
-2.52292e-10
2.55715e-10
-1.18618e-10
4.7234e-13
1.07271e-10
3.15583e-10
-1.17245e-10
-6.67692e-11
1.07714e-10
4.20589e-10
-1.19557e-10
-1.42018e-10
1.06504e-10
1.14273e-10
-1.19373e-10
-2.17921e-10
1.08145e-10
-1.95888e-10
-3.65418e-10
1.29335e-10
-2.81515e-10
-1.53837e-10
3.2036e-11
-5.36049e-11
-1.40916e-10
-7.79329e-11
1.0296e-10
-2.03867e-10
-2.47795e-10
-5.94299e-10
6.99784e-11
-2.07312e-10
-5.40782e-10
7.38003e-11
-1.84864e-10
-3.80373e-10
7.19612e-11
-1.53604e-10
-2.9737e-10
8.75872e-11
-1.12371e-10
-2.10439e-10
2.35116e-11
-3.75847e-11
-8.50817e-11
-5.5906e-11
-1.79296e-10
-1.32418e-10
-4.41e-10
-2.57135e-10
1.82667e-09
-9.56206e-09
-2.89518e-10
1.76328e-09
-9.32986e-09
-3.19365e-10
1.686e-09
-9.02464e-09
-1.56506e-09
-3.43562e-10
1.58851e-09
-8.76054e-09
-1.5311e-09
-3.17553e-10
-8.62656e-09
-1.48511e-09
-2.95435e-10
-8.49449e-09
-1.43267e-09
-2.78255e-10
-8.30656e-09
2.46718e-10
-2.64524e-10
-8.13407e-09
-8.37607e-09
-3.34522e-10
9.91836e-10
-5.91369e-09
-3.49303e-10
8.57367e-10
-5.67827e-09
-3.59855e-10
7.25152e-10
-5.38527e-09
5.93002e-10
-5.13936e-09
2.51837e-10
1.33146e-10
-4.39255e-09
2.70631e-10
2.17113e-10
-4.66641e-09
2.84161e-10
3.10982e-10
-4.99771e-09
2.92137e-10
4.17514e-10
-5.25724e-09
2.96541e-10
5.24628e-10
-5.60718e-09
2.94798e-10
6.42481e-10
-5.88078e-09
2.87163e-10
7.61332e-10
-6.20874e-09
8.80762e-10
-6.46653e-09
-3.26931e-10
-6.11807e-09
1.08417e-09
-3.41814e-10
-5.87666e-09
9.41831e-10
-3.53442e-10
-5.56571e-09
8.00048e-10
-5.31565e-09
6.58703e-10
-5.62382e-09
-9.36899e-10
3.62185e-10
1.34251e-09
4.8838e-09
5.25599e-09
6.07672e-09
1.19235e-09
6.87896e-09
-2.27143e-08
3.74954e-10
1.11252e-09
4.30137e-10
4.11019e-10
1.5747e-09
-6.30657e-09
-1.28798e-09
3.10152e-10
1.81876e-09
5.34275e-09
5.69155e-09
6.7347e-09
8.58898e-09
-2.50428e-08
3.21235e-10
1.45561e-09
2.03961e-09
6.3474e-09
1.69977e-09
-6.03981e-09
-2.98654e-10
-3.20134e-10
1.17731e-09
-3.35725e-10
1.02695e-09
-6.08586e-09
-3.47183e-10
8.76665e-10
-5.76826e-09
-3.49153e-10
7.25362e-10
-5.49921e-09
-3.49921e-10
5.87948e-10
-5.16078e-09
-3.40962e-10
4.47831e-10
-4.90564e-09
-3.2632e-10
3.2318e-10
-4.58788e-09
2.09291e-10
-4.32254e-09
1.28271e-10
-3.166e-09
-4.6133e-11
1.67304e-10
-3.48706e-09
-2.03265e-11
1.9365e-10
-3.84124e-09
1.728e-11
2.19198e-10
7.46791e-11
-4.1372e-09
2.43146e-10
1.44253e-10