/*--------------------------------*- C++ -*----------------------------------*\
| =========                 |                                                 |
| \\      /  F ield         | OpenFOAM: The Open Source CFD Toolbox           |
|  \\    /   O peration     | Version:  5.0                                   |
|   \\  /    A nd           | Web:      www.OpenFOAM.org                      |
|    \\/     M anipulation  |                                                 |
\*---------------------------------------------------------------------------*/
FoamFile
{
    version     2.0;
    format      ascii;
    class       volVectorField;
    location    "60";
    object      U;
}
// * * * * * * * * * * * * * * * * * * * * * * * * * * * * * * * * * * * * * //

dimensions      [0 1 -1 0 0 0 0];

internalField   nonuniform List<vector> 
36177
(
(-0.00169033 -0.00403176 0.0090118)
(-0.00182808 -0.00401635 0.00965961)
(-0.00198452 -0.00392066 0.0103343)
(-0.00217316 -0.00410645 0.0112019)
(-0.00190463 -0.00467212 0.0139809)
(-0.00195046 -0.005524 0.0169475)
(-0.00200094 -0.00696249 0.0201113)
(-0.00151071 -0.00978968 0.0248064)
(-0.00133666 -0.0126791 0.0290602)
(-0.000967843 -0.016679 0.0344285)
(-0.00166584 -0.0212906 0.0396324)
(-0.00381326 -0.0292192 0.0458817)
(-0.0041591 -0.0310901 0.0488338)
(-0.00490371 -0.031211 0.0499251)
(-0.00645307 -0.0299726 0.0510299)
(-0.00921453 -0.0279448 0.051463)
(-0.0110924 -0.0220172 0.0491331)
(-0.0110906 -0.0183128 0.0485998)
(-0.0104049 -0.0148366 0.0477889)
(-0.00795336 -0.0100818 0.0447559)
(-0.00534677 -0.0084097 0.043819)
(-0.00287582 -0.0077774 0.0426094)
(-0.00459845 -0.00951041 0.045256)
(-0.000198151 6.19898e-05 0.00118775)
(-0.00014747 0.000112038 0.00102837)
(-0.000173771 0.000125252 0.00115312)
(-0.00022101 0.000149059 0.00147256)
(-0.000253345 0.000150165 0.00172794)
(-0.000316125 0.000123079 0.00211285)
(-0.000341662 0.000108139 0.00207014)
(-0.000215683 0.000180943 0.00169247)
(-0.000229922 0.000177449 0.00190926)
(-0.000306071 0.000203892 0.00232862)
(-0.000358379 0.000199343 0.00264269)
(-0.000412606 0.00019353 0.00282891)
(-0.000436226 0.000191711 0.00308653)
(-0.000426469 0.000195124 0.00323709)
(-0.000401582 0.00019737 0.00346781)
(-0.000348316 0.000201635 0.0035817)
(-0.000293614 0.000199774 0.00375879)
(-0.000213341 0.00019832 0.00381933)
(-0.000149418 0.000190648 0.00388874)
(-7.81483e-05 0.000185391 0.00385593)
(-4.51982e-05 0.000171835 0.00375416)
(-2.01553e-05 0.000161048 0.00352829)
(-4.22488e-05 0.000135434 0.00303258)
(-1.77086e-05 0.000159707 0.00279731)
(5.30462e-06 4.83146e-06 0.00366074)
(-0.000247858 6.76425e-05 0.00392868)
(-0.000171284 0.000208912 0.00317143)
(3.00625e-05 0.000280709 0.00282977)
(0.000165977 8.62199e-05 0.0036864)
(-3.57044e-05 0.000123474 0.00398517)
(-9.99609e-05 0.000231993 0.00311176)
(4.70187e-05 0.000355964 0.00267693)
(0.00027855 0.000260685 0.00333164)
(0.000168288 0.000242754 0.00347819)
(-6.14241e-06 0.000229364 0.00283464)
(-5.35757e-06 0.000286439 0.00241188)
(6.22675e-05 0.0002337 0.00290024)
(2.2722e-05 0.000271945 0.00280929)
(5.4745e-07 0.000288433 0.00228994)
(5.5301e-05 0.000251439 0.00271276)
(1.16485e-05 0.00028562 0.00256411)
(4.47193e-05 0.000319235 0.00212053)
(0.000120615 0.000233235 0.0024413)
(2.80422e-05 0.000251254 0.002328)
(1.15416e-05 0.000260944 0.00186563)
(8.68672e-05 0.000221314 0.0021281)
(-1.83763e-05 0.000183631 0.00195669)
(-5.95308e-05 0.0001756 0.00150919)
(-3.80022e-05 0.000195717 0.00158684)
(-3.17178e-05 0.000210379 0.00161639)
(-7.87999e-05 0.000199001 0.00167392)
(-6.92623e-05 0.000212025 0.00168175)
(-9.02443e-05 0.000220519 0.00164401)
(-6.45442e-05 0.000225382 0.00160958)
(-8.98426e-05 0.00021566 0.00155044)
(-6.80566e-05 0.000216009 0.00150606)
(-8.17795e-05 0.000205035 0.00142412)
(-5.9012e-05 0.000199572 0.00133716)
(-6.91469e-05 0.000199045 0.00119535)
(-2.76721e-05 0.000233973 0.00153825)
(-3.65977e-05 0.000163874 0.00166795)
(-9.79708e-05 0.000170723 0.00145866)
(-6.26709e-05 0.000156202 0.00132259)
(-9.7733e-05 0.000147277 0.00114762)
(-6.23419e-05 0.000159762 0.00104387)
(-6.18421e-05 0.00016209 0.000906076)
(-3.44685e-05 0.000179867 0.00112558)
(-4.17801e-05 0.000123045 0.00116444)
(-8.47849e-05 0.000141862 0.000919977)
(-2.58854e-05 0.000184212 0.00105176)
(-2.56392e-05 0.000109359 0.00106156)
(-7.98874e-05 0.00011924 0.000827646)
(-3.62105e-05 0.00016605 0.000930368)
(-2.05642e-05 0.000110154 0.000910297)
(-6.85087e-05 9.64365e-05 0.000697724)
(-4.6742e-05 0.000135559 0.000752079)
(-3.57974e-05 0.000146039 0.000898396)
(-4.05394e-05 8.02039e-05 0.000825157)
(-7.47364e-05 8.35932e-05 0.000586284)
(-4.37195e-05 0.000118684 0.000595131)
(-2.77345e-05 0.0001314 0.00069539)
(-5.75871e-06 0.000126737 0.000760381)
(-1.03792e-05 5.38646e-05 0.000661877)
(-5.73361e-05 5.65905e-05 0.000470289)
(-3.43358e-05 0.000103957 0.000480275)
(-2.14137e-05 0.000132741 0.000556472)
(-9.66903e-06 0.000132455 0.000578204)
(-5.22465e-06 0.00013074 0.000600071)
(-0.000126607 5.59125e-05 0.000608014)
(-0.000164563 6.80223e-05 0.000500348)
(-0.000184471 5.48544e-05 0.000300165)
(-0.000207459 5.24869e-05 0.000141672)
(-0.000189962 6.8823e-05 1.58198e-05)
(-0.000176385 6.51599e-05 -9.85785e-05)
(-0.000139634 8.01753e-05 -0.000180868)
(-0.000120586 8.24587e-05 -0.000187447)
(-0.000103932 7.84314e-05 -0.000180644)
(-0.000120011 7.9119e-05 -0.000197437)
(-8.15884e-05 3.3747e-05 -0.000143886)
(-0.000103638 4.42731e-05 -0.00016004)
(-0.000118889 4.25102e-05 -0.000151951)
(-0.000148157 3.41974e-05 -8.40283e-05)
(-0.000164439 3.98975e-05 8.83536e-06)
(-0.00017319 3.18518e-05 0.000106796)
(-0.000165839 4.25089e-05 0.000229573)
(-0.000141325 5.76419e-05 0.000400621)
(-0.000115021 7.39271e-05 0.000494606)
(-0.000171719 0.000110256 0.000587071)
(-0.000215348 0.000125177 0.000748231)
(-0.000222885 0.00013259 0.000894213)
(-0.000290845 0.00012226 0.00128222)
(-0.000242153 5.30378e-05 0.00109235)
(-0.000260754 1.50777e-05 0.000941646)
(-0.000282067 3.76388e-05 0.000586585)
(-0.000284818 5.94666e-05 0.000335105)
(-0.000333135 5.58139e-05 0.000135516)
(-0.000329202 7.30984e-05 -3.46771e-05)
(-0.000328663 7.16226e-05 -0.000181723)
(-0.000285742 8.79109e-05 -0.000276495)
(-0.000246683 8.34889e-05 -0.000275803)
(-0.000213016 7.58802e-05 -0.000261931)
(-0.000218021 7.33935e-05 -0.000269015)
(-0.000148765 3.32715e-05 -0.000188104)
(-0.000185021 4.9027e-05 -0.000214446)
(-0.000214618 5.16941e-05 -0.000215603)
(-0.000245404 4.34994e-05 -0.000141436)
(-0.000242401 4.64817e-05 -2.97128e-05)
(-0.000239342 4.12119e-05 0.000103408)
(-0.000215476 4.91941e-05 0.000263574)
(-0.000190903 9.07155e-06 0.000491168)
(-0.000224673 9.41322e-05 0.000661891)
(-0.000186071 9.56329e-05 0.000806254)
(-0.000238418 0.00014792 0.000995917)
(-0.000296436 0.000168172 0.00117663)
(-0.000331208 0.000165696 0.00137322)
(-0.000382049 0.000167492 0.00148456)
(-0.000405149 0.000163241 0.0016329)
(-0.000395919 0.000170481 0.00170139)
(-0.000378349 0.000166188 0.00182821)
(-0.000327439 0.000172952 0.00187814)
(-0.000281236 0.000166802 0.00197534)
(-0.000202018 0.000168912 0.00200113)
(-0.000146323 0.000158465 0.00204405)
(-7.13675e-05 0.00015546 0.00202464)
(-4.09289e-05 0.00014245 0.00196806)
(-3.5074e-06 0.000132274 0.00185244)
(-2.03619e-05 0.000117209 0.00167418)
(3.28412e-06 4.61105e-05 0.00140338)
(-1.65397e-06 -5.1275e-05 0.00189833)
(-0.000162217 5.57775e-05 0.00223495)
(-0.000139113 0.000134681 0.00154212)
(4.46143e-05 0.000100689 0.00131988)
(0.000102724 3.40173e-06 0.00190073)
(5.92292e-06 0.000101615 0.00232585)
(-5.58892e-05 0.000175269 0.00157149)
(9.41767e-05 0.00016519 0.00118158)
(0.000217855 0.000122033 0.00164668)
(0.000171159 0.000212127 0.00206381)
(1.36413e-05 0.000213559 0.00152969)
(5.37863e-05 0.000164369 0.00111219)
(6.71852e-05 0.000117907 0.00142981)
(5.92197e-05 0.000248303 0.00163523)
(2.7269e-05 0.000154523 0.00106974)
(6.30912e-05 0.000140413 0.0013437)
(4.98785e-05 0.000247457 0.00147862)
(5.90744e-05 0.000163606 0.000946041)
(9.24821e-05 0.000130508 0.00124618)
(4.69679e-05 0.000230367 0.00138068)
(3.43912e-05 0.000145508 0.000864525)
(7.5675e-05 0.00012904 0.00108162)
(1.27761e-05 0.000176163 0.00116182)
(-1.40771e-05 9.82803e-05 0.000688412)
(-1.67842e-05 0.000130546 0.000748665)
(-1.06886e-05 0.000143126 0.00077293)
(-4.1862e-05 0.000145667 0.000822949)
(-3.31044e-05 0.000155762 0.000796057)
(-4.41752e-05 0.000161218 0.000782838)
(-2.87457e-05 0.000163728 0.000749952)
(-4.51601e-05 0.000158771 0.000737111)
(-3.12234e-05 0.000158485 0.000690458)
(-4.05873e-05 0.000152531 0.000668625)
(-2.49149e-05 0.000147287 0.000609247)
(-1.89705e-05 0.000136044 0.000545337)
(-2.63727e-05 0.000202211 0.000881098)
(4.22262e-06 0.000133315 0.000813461)
(-3.79993e-05 0.000106367 0.000715187)
(-2.15656e-05 0.000113779 0.000638888)
(-5.19626e-05 0.000109321 0.000541155)
(-3.12878e-05 0.000118439 0.000457339)
(-1.93625e-05 0.000111589 0.000397753)
(-3.53953e-05 0.00015539 0.000604148)
(-6.39283e-06 9.93048e-05 0.000518053)
(-2.57686e-05 9.52234e-05 0.000381002)
(-2.6431e-05 0.000153469 0.000547909)
(3.71848e-07 9.10096e-05 0.000474686)
(-2.61636e-05 8.0201e-05 0.000339894)
(-3.59439e-05 0.000136017 0.000459997)
(2.21912e-06 8.8254e-05 0.000384411)
(-2.73661e-05 6.07615e-05 0.000279245)
(-4.10009e-05 0.00011149 0.000317757)
(-3.7342e-05 0.000127648 0.000407079)
(-9.49574e-06 6.7103e-05 0.000317222)
(-2.96106e-05 5.11509e-05 0.000214969)
(-3.82312e-05 8.57434e-05 0.000238043)
(-3.27585e-05 0.000105698 0.000288184)
(-1.99067e-05 0.000112007 0.000360336)
(3.41238e-06 4.81881e-05 0.000257175)
(-1.61992e-05 3.94035e-05 0.000162446)
(-2.69275e-05 7.81303e-05 0.000167311)
(-2.55162e-05 9.90716e-05 0.000201154)
(-2.30465e-05 0.000101495 0.00021861)
(-2.35428e-05 0.000100167 0.000243571)
(-1.94238e-05 9.82885e-05 0.000158079)
(-1.76769e-05 0.000101353 0.000139976)
(-1.43249e-05 0.000105366 0.000140953)
(-1.494e-05 8.89441e-05 0.000138664)
(-1.28603e-05 6.70701e-05 0.000139961)
(-5.98922e-06 4.41163e-05 0.000119791)
(2.23367e-06 6.93434e-05 0.00016389)
(-2.59427e-05 0.000101141 0.000219443)
(-2.25522e-05 9.80367e-05 0.000188114)
(-1.84324e-05 7.66133e-05 0.000182444)
(-2.88719e-06 5.66526e-05 0.000143414)
(3.63106e-06 8.14107e-05 0.000197421)
(-2.53327e-05 0.000117223 0.000257584)
(-1.31221e-05 9.6751e-05 0.000235052)
(2.51668e-06 6.03828e-05 0.000187727)
(1.22433e-05 8.30485e-05 0.000222972)
(-5.81567e-06 0.00011269 0.000284953)
(9.19138e-06 6.71301e-05 0.000227332)
(1.888e-05 9.53238e-05 0.000266849)
(-2.73812e-06 0.000126602 0.000324267)
(1.29385e-05 7.10963e-05 0.000255159)
(2.15171e-05 0.000100928 0.000284153)
(4.23562e-06 0.000122963 0.000342643)
(4.89411e-06 0.000126614 0.000419112)
(3.52006e-06 0.000146056 0.00047676)
(1.49885e-05 8.26187e-05 0.000310057)
(2.65182e-05 8.5331e-05 0.000322974)
(3.24521e-05 8.74137e-05 0.000382666)
(3.76035e-05 0.000121734 0.000414698)
(1.37236e-05 0.000152798 0.000453635)
(2.28646e-05 0.000156334 0.000537814)
(1.75192e-05 0.000156065 0.000575349)
(2.09457e-05 0.00016371 0.000602169)
(1.76331e-05 0.000159449 0.000627062)
(2.39652e-05 0.000165438 0.00064585)
(1.84548e-05 0.000156495 0.000662435)
(2.39812e-05 0.000156413 0.000684917)
(2.67322e-05 0.000137965 0.000689761)
(3.63796e-05 0.000124913 0.000642768)
(3.63376e-05 0.00012937 0.000642132)
(4.22013e-05 0.000111236 0.000568327)
(7.18645e-05 8.19509e-05 0.00055409)
(8.92457e-05 7.82226e-05 0.00051054)
(8.58203e-05 0.000164905 0.000706832)
(0.00011275 9.82466e-05 0.000666104)
(0.000116057 7.15283e-05 0.0005734)
(0.000115344 0.000174625 0.000776171)
(0.000124479 0.000102584 0.000706019)
(0.000107153 7.26106e-05 0.000620359)
(9.35695e-05 0.000165746 0.000836972)
(0.000127714 8.57276e-05 0.000756679)
(0.000112938 5.76173e-05 0.000650354)
(7.14708e-05 0.000144833 0.000873858)
(0.000140438 0.000178157 0.0011531)
(0.000213187 3.88322e-05 0.00100513)
(0.000169089 2.45122e-05 0.000727583)
(0.000130565 0.000132739 0.000951014)
(3.71669e-05 0.000110863 0.00115471)
(0.000104638 -2.82021e-05 0.0010447)
(8.64964e-05 -3.61178e-05 0.000856576)
(-6.04497e-06 6.3055e-05 0.00103183)
(-9.20968e-05 4.59216e-05 0.00112749)
(-2.92975e-05 -6.16522e-05 0.000974362)
(7.63011e-06 -6.11823e-05 0.000849704)
(-4.52464e-05 2.13706e-05 0.00109496)
(-2.95472e-05 3.48551e-05 0.00123667)
(-7.84893e-06 3.3689e-05 0.00129969)
(-5.35584e-05 3.3103e-05 0.00135103)
(-8.67358e-05 4.06463e-05 0.00138284)
(-0.000182901 4.0082e-05 0.0013933)
(-0.000241829 5.37085e-05 0.00136744)
(-0.000337834 4.94458e-05 0.00135392)
(-0.000385845 6.57869e-05 0.00129381)
(-0.000446749 5.72166e-05 0.00126547)
(-0.00046004 7.50181e-05 0.00118461)
(-0.000472274 6.75629e-05 0.00114434)
(-0.000445547 8.70946e-05 0.00104646)
(-0.000399983 8.29265e-05 0.0009811)
(-0.000363296 0.000102816 0.000857184)
(-0.000297397 0.000102017 0.000767636)
(-0.00037211 7.25199e-05 0.000428527)
(-0.000297982 8.43057e-05 0.000359088)
(-0.000324722 7.0811e-05 0.000109835)
(-0.000397322 5.89131e-05 8.32236e-05)
(-0.000479345 4.44831e-05 4.41888e-05)
(-0.000443449 6.2769e-05 0.000470045)
(-0.000472914 2.69869e-05 0.000521629)
(-0.000510227 3.75674e-05 0.00054177)
(-0.000543548 4.2855e-06 0.000574985)
(-0.000525271 1.71955e-05 0.000584187)
(-0.000517258 -1.00203e-05 0.000609492)
(-0.000448245 4.55007e-06 0.000618285)
(-0.000399991 -1.71469e-05 0.000637765)
(-0.000288179 -5.44522e-06 0.000643366)
(-0.00022687 -1.77148e-05 0.000653229)
(-0.000116203 -1.10254e-05 0.000656645)
(-8.25426e-05 -1.06361e-05 0.000657866)
(-2.18814e-05 -9.75829e-06 0.000659131)
(-6.3768e-06 -6.37684e-06 0.000638326)
(-2.14964e-05 9.91424e-07 0.000546909)
(-5.53355e-06 2.11625e-07 0.000401672)
(-7.50624e-05 -5.04256e-05 0.000475531)
(-4.60051e-05 -2.94762e-05 0.000623114)
(3.02999e-05 3.63125e-05 0.000489542)
(6.47114e-05 1.29956e-05 0.000370552)
(7.93513e-05 -7.22859e-06 0.000518478)
(0.000139474 2.98211e-05 0.00066587)
(0.000204943 9.33862e-05 0.000427892)
(0.000165512 7.498e-05 0.00035473)
(0.000118076 6.85563e-06 0.000328085)
(0.00017826 4.83288e-05 0.00068286)
(0.000181671 2.59198e-05 0.000434258)
(0.000178569 0.000109557 0.000434375)
(0.000127051 7.44539e-05 0.000310637)
(0.000150021 0.000100403 0.000394395)
(0.000186903 0.000144746 0.000507682)
(0.00012046 8.6467e-05 0.000309933)
(0.000144009 0.000118691 0.000389954)
(0.000193064 0.000163163 0.000499829)
(0.000127755 9.03215e-05 0.000312559)
(0.000133183 0.000114281 0.000384368)
(0.000157521 0.000160264 0.000458954)
(9.37166e-05 9.44525e-05 0.000286551)
(9.46144e-05 0.000103083 0.000316672)
(0.00010647 0.000109449 0.000327282)
(0.000100214 0.000123817 0.000363427)
(9.47558e-05 0.00013965 0.000387064)
(5.06289e-05 6.22984e-05 0.000253184)
(4.95064e-05 0.000103737 0.000364097)
(5.58127e-05 8.48722e-05 0.000254785)
(5.97963e-05 8.8815e-05 0.000240872)
(4.09942e-05 0.000116448 0.000347883)
(5.13036e-05 9.17638e-05 0.000245225)
(5.6477e-05 9.06086e-05 0.000228428)
(3.57239e-05 0.000117027 0.000326686)
(4.41302e-05 9.17513e-05 0.000227621)
(5.18212e-05 9.06621e-05 0.00020804)
(3.32574e-05 0.000106888 0.000294979)
(3.86046e-05 8.54605e-05 0.00020923)
(5.20485e-05 0.000155914 0.000283308)
(5.45095e-05 0.000142681 0.000271128)
(4.18032e-05 0.000120627 0.000235575)
(4.51381e-05 0.000121593 0.000203329)
(2.29311e-05 9.97842e-05 0.000178197)
(3.90208e-05 8.29652e-05 0.000186832)
(2.35649e-05 0.000101098 0.000266084)
(2.97185e-05 8.01979e-05 0.000173551)
(3.10882e-05 0.000138352 0.00022374)
(3.35878e-05 0.000122186 0.000195712)
(1.56786e-05 8.93834e-05 0.000160094)
(2.33421e-05 0.000144081 0.000238055)
(2.93653e-05 0.000126987 0.000189152)
(1.11953e-05 8.92019e-05 0.000142994)
(1.41647e-05 0.000133207 0.000211259)
(2.15105e-05 0.000109047 0.000163133)
(3.42224e-06 7.76405e-05 0.000121762)
(3.14654e-06 0.000111434 0.000156848)
(1.23521e-05 8.24161e-05 0.000119426)
(2.72932e-06 8.79127e-05 0.000152202)
(6.66377e-06 6.87857e-05 9.04012e-05)
(-1.35417e-06 8.60155e-05 9.78903e-05)
(-9.7451e-06 9.41325e-05 0.000122678)
(-1.82974e-05 0.000104445 0.000148708)
(1.95408e-06 7.92844e-05 0.000107835)
(-1.95605e-06 8.15084e-05 0.000136484)
(-1.3155e-06 6.138e-05 8.0987e-05)
(-6.20063e-06 7.42136e-05 8.58716e-05)
(-8.16015e-06 9.00102e-05 9.5277e-05)
(-1.14434e-05 9.95114e-05 0.000103362)
(-1.46506e-05 0.000118889 0.000114016)
(-5.37442e-06 8.51869e-05 6.42658e-05)
(-5.79672e-06 7.6038e-05 7.2823e-05)
(-7.06224e-06 7.21538e-05 8.41202e-05)
(-2.24825e-05 7.67452e-05 0.000124374)
(-1.68524e-05 7.85117e-05 0.00011552)
(-1.2537e-05 8.1011e-05 0.000104368)
(-6.24996e-06 8.03532e-05 9.30121e-05)
(-2.92226e-06 7.59335e-05 7.3186e-05)
(-2.72726e-06 6.83187e-05 5.99941e-05)
(5.29612e-06 9.86262e-05 7.94316e-05)
(-1.71044e-06 0.000128375 0.000123567)
(1.93073e-06 0.000108476 0.000112306)
(1.23718e-06 8.49334e-05 8.72779e-05)
(2.141e-08 6.6113e-05 7.02928e-05)
(1.23634e-05 9.02556e-05 8.61074e-05)
(9.15727e-06 0.000123238 0.000118437)
(1.73519e-05 0.000103564 9.04944e-05)
(1.32598e-05 7.5185e-05 6.94213e-05)
(3.0553e-05 9.79211e-05 8.66855e-05)
(3.39972e-05 0.000128669 0.000117333)
(2.04076e-05 8.625e-05 8.02545e-05)
(4.13778e-05 0.00011402 0.000101284)
(4.93625e-05 0.000149678 0.000130106)
(2.80146e-05 9.35877e-05 8.37656e-05)
(5.0625e-05 0.000118032 0.000102598)
(5.71525e-05 0.000145643 0.000128616)
(3.16147e-05 8.44283e-05 7.67145e-05)
(5.52077e-05 0.000102296 8.82967e-05)
(5.02738e-05 0.000112271 0.000103269)
(7.22335e-05 0.000127771 0.000119578)
(8.33827e-05 0.000148349 0.000117668)
(5.06731e-05 8.47983e-05 8.31452e-05)
(6.78458e-05 9.45265e-05 8.32315e-05)
(5.78643e-05 9.99001e-05 8.32333e-05)
(7.88925e-05 0.000106651 9.22883e-05)
(7.37779e-05 0.00010871 0.000104226)
(9.00101e-05 0.00010591 0.000109748)
(8.52069e-05 0.00010935 0.000111181)
(9.72709e-05 0.000106195 0.000111315)
(8.92488e-05 0.000104196 0.00010951)
(9.97236e-05 9.40674e-05 0.000108028)
(9.25093e-05 9.24725e-05 0.000107805)
(9.88351e-05 7.70468e-05 0.000100011)
(9.73701e-05 8.18471e-05 8.58274e-05)
(9.16963e-05 6.77656e-05 7.94489e-05)
(0.000168604 0.00012141 0.0001364)
(0.000131869 0.00010062 0.00011014)
(0.000131424 8.47062e-05 9.21586e-05)
(0.000120743 8.41881e-05 6.75748e-05)
(0.000109673 5.99718e-05 6.22139e-05)
(0.000179475 9.22455e-05 9.77938e-05)
(0.000132023 7.84276e-05 4.6146e-05)
(0.000114647 5.62504e-05 3.43643e-05)
(0.000175529 8.033e-05 5.31995e-05)
(0.000135137 6.74714e-05 7.5742e-06)
(0.000120122 4.9679e-05 -1.48876e-07)
(0.000164457 6.48579e-05 -1.09962e-06)
(0.000202537 7.14345e-05 -2.10363e-05)
(0.000154661 3.82943e-05 -3.08432e-05)
(0.000123438 2.47396e-05 -3.75773e-05)
(0.00016569 5.02838e-05 -9.86529e-05)
(0.000176761 4.5892e-05 -0.000157355)
(0.00011674 2.42946e-05 -0.000163776)
(8.99588e-05 1.70105e-05 -0.00012734)
(6.8828e-05 1.15504e-05 -0.000148031)
(3.28308e-05 1.31384e-05 -0.000185903)
(-1.59113e-05 -2.14647e-05 -0.000222481)
(-3.37447e-05 -3.98577e-05 -0.000153648)
(-1.64751e-05 -6.75227e-06 -0.000114673)
(-5.55345e-05 -8.77653e-06 -0.000172236)
(-8.27458e-05 -4.92469e-06 -0.000255095)
(-0.000110509 1.18369e-05 -0.000355328)
(-0.000148067 3.9991e-06 -0.000420405)
(-0.000190354 4.24176e-06 -0.00047656)
(-0.000278965 -6.32294e-06 -0.000510372)
(-0.000341261 2.96508e-06 -0.000519039)
(-0.000429113 -9.56413e-06 -0.000521673)
(-0.000476226 7.23203e-06 -0.000494972)
(-0.000526364 -4.45907e-06 -0.000476401)
(-0.000536765 1.92719e-05 -0.000425726)
(-0.000543765 1.25203e-05 -0.000387753)
(-0.000517545 4.66961e-05 -0.000321798)
(-0.000486395 4.87223e-05 -0.000278476)
(-0.000447702 8.31031e-05 -0.000211906)
(-0.000374702 8.05151e-05 -0.000136496)
(-0.00032695 8.05445e-05 -6.96484e-05)
(-0.000331262 6.73956e-05 -0.000216321)
(-0.000356761 5.20735e-05 -0.000306867)
(-0.000396824 5.47441e-05 -0.000394186)
(-0.000439456 2.41271e-05 -0.000493681)
(-0.000468521 2.1061e-05 -0.000550359)
(-0.000494563 -9.98145e-06 -0.000624917)
(-0.000494264 -6.79444e-06 -0.000667746)
(-0.000490676 -2.90042e-05 -0.000718745)
(-0.000452366 -1.90224e-05 -0.000736418)
(-0.000414639 -3.27154e-05 -0.000758166)
(-0.000341682 -2.01642e-05 -0.000750668)
(-0.000288812 -2.67362e-05 -0.000733356)
(-0.000212862 -1.5431e-05 -0.000691375)
(-0.000171434 -1.58997e-05 -0.000622808)
(-0.000119868 -7.3556e-06 -0.000542315)
(-8.7296e-05 -4.70384e-06 -0.000434575)
(-6.52166e-05 -5.69862e-06 -0.000328505)
(-2.49989e-05 -5.33935e-06 -0.000228662)
(-3.77666e-05 -2.81711e-05 -0.000292797)
(-2.53972e-05 -2.02549e-05 -0.000381456)
(1.27028e-05 4.48261e-07 -0.000317006)
(4.34277e-05 3.12684e-06 -0.00025889)
(6.62448e-05 4.5912e-06 -0.000179687)
(9.7598e-05 1.06146e-05 -0.000226432)
(0.000158461 2.57205e-05 -0.000264892)
(0.000152805 3.70438e-05 -0.00018715)
(0.00011354 1.85069e-05 -0.000114814)
(0.000141588 3.28108e-05 -0.000128156)
(0.000186418 5.48428e-05 -0.000122092)
(0.000151531 5.04913e-05 -8.61651e-05)
(0.000114361 3.94148e-05 -4.78391e-05)
(0.000136369 6.08106e-05 -4.42843e-05)
(0.000177765 7.74256e-05 -2.966e-05)
(0.000112925 4.82874e-05 -8.46231e-06)
(0.000132603 7.09091e-05 1.0543e-06)
(0.000176212 8.72327e-05 2.1083e-05)
(0.000108485 5.50241e-05 1.95583e-05)
(0.000124809 7.98563e-05 2.76371e-05)
(0.000137891 8.08755e-05 3.92567e-05)
(0.000140186 9.68307e-05 4.8642e-05)
(0.000175297 0.000117989 6.77992e-05)
(9.5915e-05 6.43023e-05 4.60795e-05)
(0.000105832 8.2631e-05 5.41834e-05)
(0.000107952 7.80311e-05 6.15081e-05)
(0.000100905 9.30472e-05 6.68216e-05)
(0.0001085 9.37606e-05 7.47523e-05)
(9.95923e-05 0.000105074 7.73893e-05)
(0.000106523 0.000106469 8.3438e-05)
(9.51542e-05 0.000112622 8.43015e-05)
(0.000100131 0.000110409 8.6928e-05)
(8.44268e-05 0.000112693 8.45285e-05)
(8.94428e-05 0.000109238 8.45616e-05)
(7.22822e-05 0.000110235 7.92201e-05)
(7.65408e-05 0.000106377 7.3493e-05)
(5.64323e-05 9.88571e-05 6.75456e-05)
(6.31685e-05 9.06273e-05 6.18157e-05)
(6.62557e-05 0.000108204 9.318e-05)
(4.39596e-05 7.82592e-05 6.01614e-05)
(7.10087e-05 0.000135769 9.66234e-05)
(6.3073e-05 0.000111192 8.84983e-05)
(3.98222e-05 9.60459e-05 7.97733e-05)
(6.97613e-05 0.000162934 0.000122098)
(6.07067e-05 0.000137935 0.000107268)
(3.39206e-05 0.000104566 8.89232e-05)
(5.69837e-05 0.000166619 0.000133945)
(5.02358e-05 0.000132849 0.000113097)
(2.38005e-05 9.73363e-05 9.24539e-05)
(4.03571e-05 0.000148798 0.000133264)
(3.5116e-05 0.000117592 0.000106903)
(1.25517e-05 8.46227e-05 8.29184e-05)
(2.03273e-05 0.000122713 0.000116222)
(1.64614e-05 8.9098e-05 8.61854e-05)
(1.26085e-05 9.63699e-05 0.000102433)
(1.66819e-06 6.24007e-05 6.87005e-05)
(3.70438e-06 8.44657e-05 9.67761e-05)
(1.05576e-06 0.00010628 0.000127363)
(2.54119e-06 0.000132573 0.000142874)
(5.52699e-06 0.000102015 9.32163e-05)
(5.18641e-06 0.000106067 0.000103673)
(-1.51151e-06 6.75723e-05 6.44681e-05)
(1.92375e-08 8.46688e-05 8.9681e-05)
(-5.35775e-06 9.16329e-05 0.000116488)
(-1.01236e-05 9.2455e-05 0.000138108)
(-1.87434e-05 9.13806e-05 0.000156093)
(-2.44238e-05 8.4079e-05 0.000164686)
(-3.13941e-05 8.74639e-05 0.000169325)
(0.000251232 0.00133748 0.015482)
(0.00125318 0.00165163 0.0141668)
(0.00211387 0.00181176 0.0130539)
(0.00288364 0.00191745 0.0118418)
(0.00272712 0.00155062 0.0128806)
(0.00188478 0.00140952 0.014214)
(0.000951421 0.00119332 0.015532)
(-8.5235e-05 0.000838543 0.0169855)
(-0.00366446 -0.010209 0.0462037)
(-0.00191846 -0.00849471 0.0435336)
(2.06594e-06 -0.00736613 0.040115)
(-0.00106732 -0.00660395 0.0392299)
(-0.00198593 -0.00592826 0.0378238)
(0.00459547 0.00121993 0.00920003)
(0.00439805 0.00118909 0.0102461)
(0.00398929 0.00119226 0.0113341)
(0.00340186 0.00117095 0.0126283)
(0.00264742 0.00117803 0.0140473)
(0.00175452 0.000987431 0.015538)
(0.000789268 0.000753765 0.0169951)
(-0.000240819 0.000337185 0.018656)
(-1.13499e-05 6.84931e-05 8.47297e-05)
(-8.88133e-06 6.71178e-05 7.10838e-05)
(-2.32849e-06 6.50374e-05 5.81674e-05)
(-3.228e-06 5.75884e-05 4.77446e-05)
(3.62652e-06 9.0925e-05 6.6523e-05)
(-3.41099e-06 0.000117038 0.000113799)
(9.08065e-08 0.000100553 0.000105654)
(6.85227e-08 8.20364e-05 8.53116e-05)
(-1.67315e-06 6.34749e-05 6.9947e-05)
(7.82142e-06 8.96563e-05 9.20488e-05)
(1.27289e-06 0.000118537 0.000136416)
(8.71403e-06 0.000103266 0.000111701)
(5.85477e-06 7.957e-05 8.20147e-05)
(2.29673e-05 0.000108842 0.000114744)
(2.32744e-05 0.00013974 0.000163988)
(2.17144e-05 0.000103899 0.000120788)
(1.90139e-05 7.41193e-05 8.94942e-05)
(3.43152e-05 9.17328e-05 0.000107539)
(3.32247e-05 0.000121262 0.000132799)
(2.53258e-05 8.01832e-05 9.91198e-05)
(4.08812e-05 9.43831e-05 0.00011604)
(3.84278e-05 0.000121713 0.000139778)
(2.90433e-05 7.51676e-05 9.83709e-05)
(4.49482e-05 8.36805e-05 0.000107351)
(3.58574e-05 9.51268e-05 0.000116307)
(5.96939e-05 0.000114392 0.000133651)
(5.69373e-05 0.000122393 0.000160773)
(7.41058e-05 0.000132102 0.000193186)
(8.29244e-05 0.000153472 0.000196273)
(4.98574e-05 8.32639e-05 0.000127509)
(6.61728e-05 8.73072e-05 0.000130363)
(5.29746e-05 9.7211e-05 0.000136022)
(7.4351e-05 0.000102829 0.000141557)
(7.0862e-05 0.000103017 0.000150579)
(8.34382e-05 0.000101799 0.000154772)
(7.51043e-05 9.99354e-05 0.000157657)
(8.40001e-05 9.06927e-05 0.000155639)
(7.7097e-05 8.94132e-05 0.000155718)
(9.23715e-05 8.14073e-05 0.000152459)
(0.000102654 7.35831e-05 0.000170169)
(8.38282e-05 5.27185e-05 0.000150513)
(0.000139803 0.00011645 0.000229619)
(0.000123004 9.9712e-05 0.000211265)
(0.000125592 9.0435e-05 0.000181334)
(0.000119708 7.33574e-05 0.000175969)
(0.00010129 4.18574e-05 0.000145521)
(0.00016423 9.66823e-05 0.000199085)
(0.000143972 7.16392e-05 0.000173763)
(0.000107455 4.12215e-05 0.000135608)
(0.000157337 8.79511e-05 0.000175579)
(0.000152244 5.93247e-05 0.000160109)
(0.000115589 3.44251e-05 0.000121627)
(0.000142734 6.70275e-05 0.000149396)
(0.000209593 6.56932e-05 0.000185061)
(0.000173502 3.49035e-05 0.000113984)
(0.000152209 3.36769e-05 8.21311e-05)
(0.000204749 4.67473e-05 0.000119393)
(0.000213782 5.32904e-05 8.1211e-05)
(0.000158501 -7.45176e-06 9.67328e-05)
(9.12608e-05 -1.34074e-05 8.05309e-05)
(3.84916e-05 -1.6189e-06 8.22108e-05)
(3.25521e-05 -3.80404e-06 0.00010378)
(-2.25401e-05 -4.92774e-05 0.000116736)
(-3.05017e-05 -6.8316e-05 0.000132457)
(-6.1684e-06 -1.6286e-05 0.000120229)
(-3.6264e-05 -2.45262e-05 0.000136233)
(-2.66186e-05 -3.06827e-05 0.000107013)
(-5.0314e-05 -4.11777e-05 3.37445e-05)
(-0.000112309 -4.80994e-05 -8.6768e-06)
(-0.000152792 -5.26747e-05 -4.659e-05)
(-0.000264903 -6.39328e-05 -6.75725e-05)
(-0.000328966 -5.43963e-05 -7.51901e-05)
(-0.000437753 -6.78292e-05 -7.97851e-05)
(-0.000485543 -4.66766e-05 -6.67912e-05)
(-0.000554229 -5.85607e-05 -5.98976e-05)
(-0.000565965 -2.84281e-05 -3.29315e-05)
(-0.000582333 -3.68398e-05 -1.69532e-05)
(-0.000546315 2.54434e-06 1.30105e-05)
(-0.000511154 1.21081e-06 2.52686e-05)
(-0.00158103 -0.00053623 0.00058243)
(-0.00143344 -0.000498235 0.00198004)
(-0.00119441 -0.000308927 0.00313711)
(-0.00102135 -0.000254478 0.00417277)
(-0.00103686 -0.000277498 0.00582296)
(-0.000889372 -0.000123951 0.00523652)
(-0.000642414 2.36029e-05 0.0044482)
(-0.000466028 0.000208549 0.00352441)
(-0.000628119 0.000224042 0.00375969)
(-0.00118383 3.83322e-06 0.00542225)
(-0.000995911 -0.000136382 0.00461659)
(-0.0008668 -5.97194e-05 0.00398012)
(-0.000711016 1.58218e-05 0.0034872)
(-0.000509076 8.71993e-05 0.00283726)
(-0.000337684 0.000163418 0.00225355)
(-0.000421336 0.000176334 0.00238679)
(-0.000792903 9.53396e-05 0.00351029)
(-0.0027877 -0.0109083 0.0467434)
(-0.000954623 -0.00922195 0.0440089)
(0.00101253 -0.00815225 0.0406107)
(0.00263626 -0.00683681 0.0379363)
(0.00150119 -0.00601175 0.0374437)
(0.000364586 -0.0052356 0.0365882)
(-0.000684532 -0.0045574 0.0352406)
(-0.00166771 -0.00390079 0.0336422)
(-0.00293022 -0.00525265 0.0361408)
(-0.00237071 0.000489601 0.016247)
(-0.00121329 0.00096483 0.0148452)
(-0.000213657 0.00121898 0.0136535)
(0.000774349 0.00143534 0.0123505)
(0.00489773 0.00101447 0.009703)
(0.00466087 0.000943811 0.0108465)
(0.00420272 0.000909303 0.0120764)
(0.00357794 0.000863269 0.0134985)
(0.00278526 0.000847116 0.015112)
(0.00188021 0.000640208 0.0167298)
(0.000904653 0.000379499 0.0184001)
(-9.29733e-05 -6.02893e-05 0.0201991)
(-0.00279816 0.000153652 0.0177475)
(-0.00162364 0.000659798 0.0162199)
(-0.00055647 0.00097007 0.0148323)
(0.000491519 0.00119941 0.0134208)
(-0.00387317 0.000434002 0.0141398)
(-0.00932818 -0.00116301 0.0153118)
(-0.00351552 0.000405311 0.0130267)
(-0.00467813 2.48769e-05 0.0143831)
(-0.00506871 5.42543e-05 0.0155993)
(-0.00617673 -0.00045522 0.0170138)
(-0.0113024 -0.00283469 0.018123)
(-0.00575631 -0.000430818 0.0156262)
(-0.00697043 -0.00113138 0.0170672)
(-0.00738592 -0.00119036 0.0185863)
(-0.00753081 -0.00119329 0.0201127)
(-0.00301673 -0.000170722 0.019403)
(-0.00186823 0.000407414 0.0176716)
(-0.000782683 0.000723126 0.0161711)
(0.000303945 0.000997695 0.0146121)
(0.00123632 0.00100845 0.0131086)
(0.00205038 0.00107468 0.0117156)
(0.00266916 0.00108242 0.0105156)
(0.00311253 0.00113147 0.00935324)
(0.00396098 0.00115099 0.00615598)
(0.00460873 0.00111073 0.00705536)
(0.00504324 0.00102721 0.00804565)
(0.00529063 0.000900278 0.00909734)
(0.00525979 0.00078768 0.0102752)
(0.00500696 0.00066218 0.0115694)
(0.00451787 0.000593994 0.0130025)
(0.00388266 0.000505837 0.0146121)
(0.00307721 0.000483207 0.0164511)
(0.00219099 0.00023412 0.0182825)
(0.00122977 -3.59467e-05 0.0201994)
(0.000273563 -0.000536572 0.022251)
(-0.000826702 -0.00091057 0.0247371)
(-0.00193052 -0.00175648 0.0269775)
(-0.00292907 -0.000387816 0.0209349)
(-0.00182397 0.00021347 0.0190742)
(-0.000728773 0.000562412 0.0173665)
(0.000360546 0.000839625 0.0156909)
(0.00132795 0.000860009 0.0139968)
(0.00217461 0.000925765 0.0124821)
(0.0028439 0.000950149 0.0111387)
(0.00333104 0.00101586 0.00987604)
(0.00104234 0.00123034 0.00802629)
(0.00389597 0.00108149 0.00797912)
(0.00369971 0.00114465 0.00687313)
(0.00325868 0.0011765 0.00589393)
(0.00422816 0.00104573 0.00625439)
(0.00494634 0.000988058 0.00716713)
(0.00543705 0.000874607 0.00818819)
(0.00573065 0.000715496 0.0092992)
(0.0057268 0.000553359 0.0105766)
(0.0055001 0.000386378 0.0119922)
(0.00503035 0.000272639 0.0135881)
(0.00442392 0.000160619 0.0153384)