/*--------------------------------*- C++ -*----------------------------------*\
| =========                 |                                                 |
| \\      /  F ield         | OpenFOAM: The Open Source CFD Toolbox           |
|  \\    /   O peration     | Version:  5.0                                   |
|   \\  /    A nd           | Web:      www.OpenFOAM.org                      |
|    \\/     M anipulation  |                                                 |
\*---------------------------------------------------------------------------*/
FoamFile
{
    version     2.0;
    format      ascii;
    class       volVectorField;
    location    "60";
    object      URest;
}
// * * * * * * * * * * * * * * * * * * * * * * * * * * * * * * * * * * * * * //

dimensions      [0 1 -1 0 0 0 0];

internalField   nonuniform List<vector> 
36177
(
(-0.00106018 -0.00660321 0.0107899)
(-0.00102412 -0.00740242 0.0122509)
(-0.00100407 -0.00792603 0.0135042)
(-0.000990789 -0.00878475 0.014932)
(-0.000958714 -0.0105075 0.0191369)
(-0.00095328 -0.0120986 0.0228879)
(-0.000961179 -0.0131312 0.0254497)
(-0.0010596 -0.0144402 0.0287374)
(-0.00121708 -0.0149086 0.0304769)
(-0.00151679 -0.0159089 0.0331403)
(-0.00113868 -0.015109 0.0331525)
(-0.000328014 -0.0142091 0.0329419)
(-0.000427912 -0.0142115 0.0339096)
(-0.000721328 -0.0144319 0.0350111)
(-0.00098736 -0.0146621 0.0359922)
(-0.00110376 -0.0151609 0.0367871)
(-0.00114754 -0.015886 0.0368675)
(-0.00127007 -0.0167837 0.0371234)
(-0.00141598 -0.0177859 0.0372354)
(-0.00177438 -0.0193046 0.0365621)
(-0.00237857 -0.020557 0.0365437)
(-0.00296554 -0.0213111 0.0364551)
(-0.00266709 -0.0221802 0.0373364)
(-0.00034351 7.24437e-05 0.00113097)
(-0.00028532 0.000107749 0.000909296)
(-0.000317007 0.000110472 0.00101229)
(-0.000394876 0.000127254 0.00122561)
(-0.000452405 0.000125223 0.00140427)
(-0.000567648 0.000101027 0.00158359)
(-0.000567235 8.32323e-05 0.00153939)
(-0.000386835 0.000129198 0.00116492)
(-0.000401366 0.00010896 0.00121478)
(-0.000491641 0.000107715 0.00141207)
(-0.000558005 9.33588e-05 0.00152075)
(-0.000614591 8.0307e-05 0.00158359)
(-0.000649087 7.54329e-05 0.00165217)
(-0.000660384 7.48031e-05 0.00170075)
(-0.000659043 7.70386e-05 0.00176473)
(-0.000641525 7.94233e-05 0.00181079)
(-0.000616317 8.09312e-05 0.00187077)
(-0.000579735 7.92358e-05 0.00190594)
(-0.000541712 7.52509e-05 0.00194442)
(-0.000499601 6.65422e-05 0.00194923)
(-0.000461047 5.25114e-05 0.00192891)
(-0.000417885 3.32992e-05 0.00183458)
(-0.000370188 1.15534e-05 0.0016196)
(-0.000298628 8.62941e-06 0.00158351)
(-0.000367478 -0.000142732 0.00204871)
(-0.000620774 -0.000123238 0.00218186)
(-0.000480197 3.54969e-06 0.0017837)
(-0.000277982 8.27526e-05 0.00170478)
(-0.000246565 -6.54989e-05 0.0022288)
(-0.000458602 -4.96071e-05 0.00239898)
(-0.00038404 3.8913e-05 0.00192453)
(-0.000193492 0.000155304 0.00176673)
(-4.25954e-05 8.61436e-05 0.00229853)
(-0.000127757 0.000107205 0.00240514)
(-0.000146288 0.000122016 0.00195431)
(-7.94238e-05 0.000173259 0.00172199)
(-2.34401e-05 0.000136078 0.00214585)
(-6.87363e-05 0.000184686 0.00207564)
(-2.76363e-05 0.000213561 0.00174217)
(3.16704e-05 0.000200001 0.0021352)
(-1.56057e-05 0.000245679 0.00200528)
(4.99453e-05 0.00027603 0.00169276)
(0.000117158 0.000228463 0.00201249)
(1.80365e-05 0.000247925 0.00191555)
(2.76779e-05 0.000250951 0.0015643)
(9.90766e-05 0.000234226 0.00184429)
(-8.53586e-06 0.000203936 0.00169993)
(-2.98725e-05 0.000192156 0.00132322)
(-1.14405e-05 0.000223614 0.00143016)
(-1.00704e-05 0.000241947 0.00148031)
(-5.83041e-05 0.000246309 0.0015647)
(-5.75864e-05 0.0002624 0.00159588)
(-8.1368e-05 0.000279687 0.0016013)
(-6.7396e-05 0.000286285 0.0015951)
(-9.41453e-05 0.000286628 0.0015812)
(-8.1193e-05 0.000290267 0.00156263)
(-9.50619e-05 0.000288179 0.00152287)
(-8.20481e-05 0.00028018 0.00145836)
(-9.6693e-05 0.000278006 0.00135271)
(-0.000107239 0.000342942 0.00180286)
(-0.000120504 0.000285115 0.00194115)
(-0.000168508 0.000293859 0.00177864)
(-0.000138441 0.00027611 0.00165662)
(-0.000172731 0.000260012 0.00151553)
(-0.000143677 0.000269211 0.00141925)
(-0.000136848 0.000264156 0.00128804)
(-0.000162155 0.000302011 0.00165171)
(-0.000173246 0.000234602 0.00169329)
(-0.000202015 0.000247502 0.00141507)
(-0.000187488 0.000315528 0.00169748)
(-0.000185647 0.000213449 0.00168909)
(-0.000225543 0.000214422 0.00139706)
(-0.000235207 0.000284924 0.00164798)
(-0.000207488 0.000199489 0.00162109)
(-0.000233256 0.000171834 0.0013248)
(-0.000264017 0.000236971 0.00152907)
(-0.000324326 0.000261223 0.00188538)
(-0.000294075 0.000172483 0.00169833)
(-0.000279575 0.00017674 0.00129025)
(-0.000278288 0.000251281 0.00141597)
(-0.000310775 0.000272325 0.0016854)
(-0.000320038 0.000260878 0.00189279)
(-0.000285968 0.000112857 0.00164446)
(-0.000289309 0.000114152 0.00121815)
(-0.000298575 0.000193786 0.00127751)
(-0.000327663 0.000221675 0.00148103)
(-0.000338967 0.000208873 0.00158012)
(-0.000351216 0.000192197 0.00163332)
(-0.000227878 4.40315e-05 0.000521146)
(-0.000189994 6.2906e-05 0.000405681)
(-0.000152048 6.01472e-05 0.000276347)
(-0.000140349 5.00884e-05 0.00027553)
(-0.00012738 3.78143e-05 0.000255589)
(-0.000114465 3.54286e-05 0.000251968)
(-0.000109488 2.58394e-05 0.000254575)
(-9.9594e-05 1.98385e-05 0.0002514)
(-8.09952e-05 1.43123e-05 0.000228609)
(-9.48541e-05 1.02313e-05 0.000272222)
(-7.08321e-05 1.05813e-05 0.000186696)
(-7.92508e-05 6.9119e-06 0.00020257)
(-8.99988e-05 1.04496e-05 0.000202731)
(-9.46951e-05 1.58304e-05 0.000198921)
(-0.000105025 1.72939e-05 0.000198594)
(-0.000115285 2.49829e-05 0.000210397)
(-0.000132889 3.72928e-05 0.000199432)
(-0.000149376 4.12124e-05 0.000304821)
(-0.000193421 5.57723e-05 0.000379522)
(-0.000240107 9.28658e-05 0.000466546)
(-0.000302084 0.000107061 0.000560506)
(-0.000322669 0.000111313 0.000650515)
(-0.000442321 0.000110997 0.00085689)
(-0.000399551 2.65634e-05 0.000693809)
(-0.000307315 2.85389e-05 0.000605116)
(-0.000240744 4.56218e-05 0.000383647)
(-0.000190836 6.83053e-05 0.000267599)
(-0.000183931 5.95499e-05 0.000287916)
(-0.000167886 4.67833e-05 0.000285137)
(-0.000145346 3.76159e-05 0.000298503)
(-0.000133618 2.29757e-05 0.000306868)
(-0.000121228 1.72266e-05 0.000303919)
(-0.000105224 9.12933e-06 0.00028709)
(-0.000107354 4.13964e-06 0.000322954)
(-7.77915e-05 6.43942e-06 0.000209692)
(-8.60181e-05 3.39267e-06 0.000226075)
(-9.71858e-05 8.2214e-06 0.000230269)
(-0.000106205 1.68726e-05 0.000222769)
(-0.00012309 2.30308e-05 0.000211438)
(-0.000134946 3.17995e-05 0.000216021)
(-0.000149947 3.93506e-05 0.000197485)
(-0.000186239 1.1549e-05 0.000293212)
(-0.000217915 7.23876e-05 0.000387067)
(-0.00026723 6.05215e-05 0.000463862)
(-0.000305083 0.000103031 0.000548201)
(-0.000354165 0.000106534 0.000619874)
(-0.000404335 9.95701e-05 0.000699261)
(-0.000450331 9.53005e-05 0.000753535)
(-0.000475611 9.48607e-05 0.000798633)
(-0.000484834 9.78572e-05 0.000826771)
(-0.000486016 0.000101063 0.000864068)
(-0.000475493 0.000105475 0.000887699)
(-0.000459794 0.00010768 0.000922179)
(-0.000435631 0.000108454 0.000938614)
(-0.000410833 0.000104426 0.000963505)
(-0.000380744 9.81737e-05 0.000961281)
(-0.000351161 8.40088e-05 0.000950892)
(-0.000314051 6.64569e-05 0.000895714)
(-0.000282974 4.2946e-05 0.000831162)
(-0.000203005 -1.30373e-05 0.000718937)
(-0.000288258 -9.75189e-05 0.000992233)
(-0.000472203 -5.11606e-05 0.00120349)
(-0.000359371 2.11636e-05 0.00085128)
(-0.00018741 2.20094e-05 0.000753385)
(-0.000216043 -5.17341e-05 0.00109962)
(-0.000370793 4.94676e-06 0.00138267)
(-0.000307741 5.05661e-05 0.000979957)
(-0.000118354 7.11066e-05 0.000768255)
(-5.21492e-05 3.50417e-05 0.00110281)
(-0.00011833 0.000124116 0.00142033)
(-0.000137331 0.000135085 0.00106036)
(-3.90281e-05 0.00010328 0.000792151)
(-2.27013e-05 6.79896e-05 0.00104482)
(-5.83836e-05 0.000186215 0.00123027)
(-2.6947e-05 0.000116577 0.000829095)
(2.31949e-05 0.000113739 0.00106121)
(-9.80575e-06 0.000220718 0.0011961)
(2.92831e-05 0.000143779 0.000781494)
(7.37776e-05 0.000130041 0.00104679)
(9.45971e-06 0.000226783 0.00119145)
(1.71018e-05 0.000139858 0.000760978)
(7.3441e-05 0.00013837 0.000964406)
(-2.75922e-06 0.00018846 0.00106511)
(-1.63048e-05 0.000106385 0.000643645)
(-1.55426e-05 0.000142965 0.000710574)
(-1.40147e-05 0.000160307 0.000756211)
(-4.36544e-05 0.000168595 0.000814777)
(-4.34764e-05 0.000182712 0.000815869)
(-5.61402e-05 0.000189313 0.00082076)
(-4.95873e-05 0.000197036 0.000819523)
(-6.53827e-05 0.000194333 0.000823057)
(-5.80439e-05 0.000200013 0.000804448)
(-6.44224e-05 0.000196068 0.000796518)
(-5.42522e-05 0.000197242 0.000762861)
(-4.38991e-05 0.000189906 0.000714265)
(-0.000104893 0.00026896 0.00120961)
(-6.42872e-05 0.000204187 0.00110922)
(-9.90391e-05 0.000166285 0.00101451)
(-7.63713e-05 0.000191548 0.000943732)
(-0.000118738 0.000167698 0.000832836)
(-9.73391e-05 0.000190439 0.00075458)
(-6.63414e-05 0.00018314 0.000684439)
(-0.000147291 0.000230075 0.00109665)
(-9.62978e-05 0.000163825 0.000930443)
(-9.76198e-05 0.000158136 0.000731646)
(-0.000158293 0.000235068 0.00112399)
(-0.000105608 0.000151597 0.000955435)
(-0.000114831 0.000136006 0.000736018)
(-0.000197996 0.00020791 0.00107424)
(-0.000116864 0.00013877 0.000894702)
(-0.00013051 9.63107e-05 0.000701817)
(-0.000204104 0.000192553 0.000903118)
(-0.000268743 0.000185212 0.00120026)
(-0.000173512 0.00011837 0.000916482)
(-0.00015664 0.000100341 0.000665632)
(-0.000211346 0.00018679 0.00084452)
(-0.000234245 0.000215061 0.00101838)
(-0.000269044 0.000194637 0.00127564)
(-0.000175865 8.8487e-05 0.000928223)
(-0.000160763 6.79372e-05 0.000643123)
(-0.000216761 0.000140457 0.00074395)
(-0.000244777 0.000163079 0.000882249)
(-0.000262072 0.000162848 0.000977094)
(-0.00028119 0.000151597 0.00104233)
(-0.000233304 0.000147291 0.000985478)
(-0.000214361 0.000159962 0.000906196)
(-0.000190222 0.000159677 0.000801374)
(-0.000174554 0.000137123 0.000740294)
(-0.00014845 8.58391e-05 0.000643853)
(-6.59972e-05 6.42576e-05 0.000547083)
(-0.00011505 0.000102062 0.000762176)
(-0.00021429 0.000162836 0.00096903)
(-0.000171969 0.000184082 0.000799959)
(-0.00014959 0.000105633 0.000663259)
(-7.31004e-05 6.40005e-05 0.000531602)
(-0.000105651 8.87038e-05 0.000711691)
(-0.00018738 0.000146873 0.00088787)
(-0.000125838 0.000114863 0.000683256)
(-6.03884e-05 6.17791e-05 0.000522867)
(-7.74834e-05 9.64539e-05 0.00062147)
(-0.000109453 0.000126603 0.000693064)
(-4.82606e-05 6.89146e-05 0.000544303)
(-6.15644e-05 0.000111175 0.000644688)
(-9.75422e-05 0.000141872 0.000694858)
(-4.02891e-05 7.44433e-05 0.000533296)
(-5.06822e-05 0.000113785 0.000603876)
(-7.07733e-05 0.000147314 0.000652555)
(-8.72532e-05 0.000156422 0.000784162)
(-0.000111566 0.000153175 0.000832485)
(-4.04978e-05 8.97807e-05 0.000524828)
(-4.96863e-05 7.53555e-05 0.000548455)
(-3.7326e-05 8.44792e-05 0.000605651)
(-3.93755e-05 0.000126519 0.00066003)
(-6.04972e-05 0.000161151 0.00066297)
(-6.15479e-05 0.000167249 0.000762679)
(-8.16653e-05 0.000154397 0.0007778)
(-6.79265e-05 0.000167417 0.000795244)
(-8.11757e-05 0.000151173 0.000792659)
(-6.31175e-05 0.000163095 0.000795568)
(-7.51686e-05 0.000144201 0.000781524)
(-5.51192e-05 0.000152055 0.000784128)
(-5.09568e-05 0.000128257 0.000757207)
(-3.70697e-05 0.00010849 0.000692922)
(-3.31108e-05 0.000115349 0.000663789)
(-2.38843e-05 8.78333e-05 0.000586634)
(5.92019e-06 6.76093e-05 0.000552732)
(2.71378e-05 5.83883e-05 0.000503988)
(-4.68751e-06 0.000132181 0.000685611)
(1.67386e-05 8.27118e-05 0.000623128)
(2.67783e-05 5.12321e-05 0.000534295)
(-3.5454e-06 0.000133237 0.000709303)
(7.09129e-06 7.85476e-05 0.000626399)
(4.39942e-06 4.60514e-05 0.000544073)
(-5.16161e-05 0.00011317 0.000719466)
(-2.65508e-05 5.31919e-05 0.000625935)
(-2.33777e-05 2.72319e-05 0.000538441)
(-9.6465e-05 9.13211e-05 0.000716676)
(-0.000120826 0.000120089 0.000916565)
(-5.6457e-05 1.85811e-05 0.000764568)
(-5.50416e-05 -9.97529e-07 0.000561128)
(-0.000154801 6.14593e-05 0.000711804)
(-0.000304327 2.57782e-05 0.000845092)
(-0.000186454 -3.8694e-05 0.000701202)
(-0.0001342 -3.11661e-05 0.000560549)
(-0.000226821 2.50664e-05 0.000675176)
(-0.000333479 5.05199e-07 0.000745233)
(-0.000218183 -6.09416e-05 0.000596776)
(-0.000158077 -4.11846e-05 0.000496655)
(-0.000219377 6.15756e-06 0.000608841)
(-0.000262417 2.64758e-05 0.000691041)
(-0.000281024 5.00799e-05 0.000720383)
(-0.00031003 6.43233e-05 0.000762676)
(-0.000332643 7.95575e-05 0.000772097)
(-0.000356868 8.56529e-05 0.00077801)
(-0.000373402 9.22466e-05 0.000758497)
(-0.000388623 9.17074e-05 0.000744778)
(-0.000397371 9.20135e-05 0.000714416)
(-0.00040138 8.73784e-05 0.000690099)
(-0.000396941 8.56122e-05 0.000653729)
(-0.000386847 8.17292e-05 0.000621446)
(-0.000366939 8.23818e-05 0.000577271)
(-0.000331078 8.14484e-05 0.000524455)
(-0.00028856 8.78762e-05 0.000463811)
(-0.000252072 8.61095e-05 0.000419835)
(-0.000230109 7.05604e-05 0.000339097)
(-0.000207826 6.85899e-05 0.000269947)
(-0.000185968 5.35391e-05 0.000291488)
(-0.000203529 5.34152e-05 0.000359603)
(-0.00022825 5.62257e-05 0.000424549)
(-0.000253988 7.27356e-05 0.000396154)
(-0.000289307 6.90701e-05 0.000453599)
(-0.000320693 6.93843e-05 0.000501926)
(-0.000336876 6.82661e-05 0.00054664)
(-0.000347371 7.19121e-05 0.0005818)
(-0.000354411 7.22479e-05 0.000619916)
(-0.000356903 7.6543e-05 0.000646544)
(-0.000353199 7.3591e-05 0.000673397)
(-0.000343694 7.4621e-05 0.000682606)
(-0.000330045 6.56511e-05 0.000691819)
(-0.000310952 6.13678e-05 0.000681772)
(-0.000291755 4.34932e-05 0.000670148)
(-0.000267444 3.29048e-05 0.00063311)
(-0.000239555 3.6192e-06 0.000585681)
(-0.000208903 -4.78034e-06 0.000498642)
(-0.000165775 -7.57075e-06 0.000385287)
(-0.000249545 -4.45709e-05 0.000519606)
(-0.000319863 -2.64511e-05 0.000711419)
(-0.000224089 2.17534e-06 0.000579198)
(-0.000155468 -1.48208e-06 0.000449946)
(-0.000250137 -2.61626e-05 0.000636687)
(-0.00028321 2.57847e-06 0.000831501)
(-0.000170254 2.44789e-05 0.000606606)
(-9.74516e-05 2.75781e-05 0.000469961)
(-6.18849e-05 -3.92358e-06 0.000376402)
(-6.51923e-05 2.58826e-05 0.000622855)
(-5.06695e-05 1.52604e-05 0.000498314)
(-8.57766e-05 5.79624e-05 0.000574112)
(-4.13487e-05 4.13834e-05 0.000429118)
(-6.79393e-05 5.44262e-05 0.000539343)
(-4.63638e-05 9.97229e-05 0.000666679)
(-2.5746e-05 5.18258e-05 0.000436371)
(-3.88806e-05 7.71463e-05 0.000538806)
(-8.51935e-06 0.000123349 0.000665146)
(-4.68194e-06 5.84844e-05 0.000438714)
(-2.39602e-05 7.74874e-05 0.000536404)
(-2.22751e-06 0.000119764 0.000634608)
(-2.59154e-06 6.05642e-05 0.000410128)
(-6.77261e-06 6.91473e-05 0.000450904)
(-1.5084e-06 7.77707e-05 0.000476679)
(-2.34531e-05 9.19148e-05 0.000535543)
(-1.77599e-05 0.000109374 0.000574995)
(-2.55328e-05 3.14491e-05 0.000375382)
(-2.36827e-05 8.58196e-05 0.000480608)
(-1.97201e-05 5.65979e-05 0.000377701)
(-2.50108e-05 5.54248e-05 0.000381949)
(-4.01353e-05 9.81826e-05 0.000502694)
(-2.32253e-05 6.56172e-05 0.000388967)
(-2.87491e-05 5.77225e-05 0.000389127)
(-4.68748e-05 0.00010151 0.000511072)
(-2.81671e-05 6.84565e-05 0.000387873)
(-2.83622e-05 6.26304e-05 0.000384086)
(-4.55423e-05 9.43107e-05 0.000497156)
(-2.16076e-05 7.20313e-05 0.000391141)
(-8.12259e-05 0.000115505 0.000610772)
(-6.06741e-05 0.000128379 0.000621015)
(-7.02177e-05 8.68758e-05 0.000550985)
(-6.31042e-05 9.88485e-05 0.00051917)
(-5.75004e-05 8.20609e-05 0.000458366)
(-4.26885e-05 5.97921e-05 0.000461943)
(-5.45463e-05 9.49445e-05 0.000589452)
(-2.23134e-05 7.64379e-05 0.000421857)
(-9.08111e-05 0.000115442 0.000619425)
(-6.16431e-05 0.000123738 0.000573507)
(-5.59013e-05 7.72748e-05 0.000480617)
(-0.000106524 0.000114477 0.000716926)
(-7.03946e-05 0.000128841 0.000620293)
(-6.40457e-05 7.82975e-05 0.000489716)
(-0.000115879 0.000108644 0.000721938)
(-7.99396e-05 0.000115129 0.000609131)
(-7.48836e-05 5.92744e-05 0.000482255)
(-0.00011024 9.042e-05 0.000608718)
(-8.1855e-05 6.6032e-05 0.00052415)
(-9.48218e-05 8.37602e-05 0.000640388)
(-4.45009e-05 6.6454e-05 0.000399942)
(-0.000101515 7.75747e-05 0.000513377)
(-0.000129029 0.000118364 0.000612313)
(-0.000173001 0.000135687 0.0007846)
(-9.69907e-05 0.000105194 0.000620803)
(-0.000111453 0.00010636 0.000710362)
(-4.24382e-05 7.88763e-05 0.000439452)
(-0.000102111 7.37604e-05 0.000538791)
(-0.000124847 0.000106955 0.000590467)
(-0.000150767 0.000136343 0.000718723)
(-0.000184521 0.000133196 0.000817176)
(-0.000101088 9.17028e-05 0.000578605)
(-0.000114178 9.10575e-05 0.000602998)
(-0.000129197 9.86406e-05 0.000640146)
(-0.0001032 8.86966e-05 0.000595676)
(-9.2939e-05 9.16811e-05 0.00057166)
(-7.96017e-05 8.51581e-05 0.000541355)
(-6.72449e-05 7.66107e-05 0.000495893)
(-5.86848e-05 6.66111e-05 0.000421249)
(-2.25076e-05 6.19489e-05 0.000333263)
(-5.85188e-05 8.3872e-05 0.000490319)
(-0.000101531 0.000108064 0.000657945)
(-7.81406e-05 0.000100706 0.000562334)
(-7.03287e-05 6.50625e-05 0.000463526)
(-2.77346e-05 5.58139e-05 0.000356947)
(-6.23558e-05 7.12295e-05 0.000494485)
(-0.00010004 8.35698e-05 0.0006301)
(-6.43702e-05 7.21286e-05 0.000478235)
(-2.2858e-05 4.9058e-05 0.000358149)
(-4.96221e-05 5.22942e-05 0.000461486)
(-6.42099e-05 7.41572e-05 0.000559547)
(-4.55972e-05 5.21402e-05 0.000415813)
(-5.43712e-05 7.22836e-05 0.000502984)
(-6.00049e-05 7.98344e-05 0.000598127)
(-4.27692e-05 5.36788e-05 0.000420325)
(-4.92944e-05 7.38351e-05 0.000496286)
(-5.76659e-05 7.6603e-05 0.00058084)
(-4.16591e-05 4.54486e-05 0.000392977)
(-4.20126e-05 5.80256e-05 0.000442991)
(-4.74138e-05 5.81454e-05 0.000480291)
(-5.35121e-05 7.45854e-05 0.000542078)
(-7.13769e-05 6.35634e-05 0.000574045)
(-1.37936e-05 4.36974e-05 0.000354855)
(-2.69889e-05 3.01214e-05 0.000377612)
(-3.58404e-05 4.34121e-05 0.000391654)
(-3.24189e-05 4.76517e-05 0.000432177)
(-3.30856e-05 4.58566e-05 0.000443234)
(-2.99438e-05 4.31078e-05 0.000458122)
(-3.05756e-05 4.48456e-05 0.000456405)
(-2.87629e-05 4.23797e-05 0.000458257)
(-3.05674e-05 3.97269e-05 0.000449747)
(-2.40308e-05 3.40788e-05 0.000440883)
(-2.15306e-05 3.32984e-05 0.000429051)
(-1.60702e-05 2.7163e-05 0.000406334)
(-1.22777e-05 2.82687e-05 0.000380224)
(-5.86351e-06 2.71263e-05 0.000350474)
(-9.40659e-06 4.0508e-05 0.000554538)
(-1.14806e-05 3.48781e-05 0.000489502)
(-8.99272e-06 2.74269e-05 0.000434259)
(-9.04854e-06 2.36288e-05 0.000387476)
(-2.2833e-06 2.1553e-05 0.000341778)
(-2.0865e-05 2.48703e-05 0.000506358)
(-2.86579e-05 2.06898e-05 0.000413368)
(-1.96202e-05 1.77586e-05 0.000351308)
(-4.27728e-05 1.55227e-05 0.00051193)
(-4.33647e-05 8.39217e-06 0.00041398)
(-3.54847e-05 8.18572e-06 0.000342363)
(-6.96371e-05 -1.23584e-06 0.000497432)
(-0.000107263 -4.82165e-06 0.000649085)
(-8.17612e-05 -1.13359e-05 0.000506519)
(-7.15596e-05 -1.34407e-06 0.000387871)
(-0.000128692 -1.39752e-05 0.000529408)
(-0.000201706 -3.97443e-05 0.000668762)
(-0.000169715 -4.49041e-05 0.000508413)
(-0.000129538 -2.15746e-05 0.000383577)
(-0.000199814 -4.56343e-05 0.000520456)
(-0.000252877 -5.77495e-05 0.000633311)
(-0.000315316 -7.88735e-05 0.000736643)
(-0.000224669 -6.86383e-05 0.000536837)
(-0.000160356 -2.95236e-05 0.000393915)
(-0.0002049 -4.30691e-05 0.000509593)
(-0.000223972 -4.50956e-05 0.000591802)
(-0.000246517 -3.10956e-05 0.00065617)
(-0.00027253 -2.23157e-05 0.000698806)
(-0.000288665 -4.74912e-06 0.000727677)
(-0.000303931 2.72876e-07 0.000743132)
(-0.000314502 1.2568e-05 0.000744636)
(-0.000319248 1.34664e-05 0.000736896)
(-0.000320887 2.01375e-05 0.000717001)
(-0.000315711 1.81249e-05 0.000690827)
(-0.000308808 2.13872e-05 0.000653682)
(-0.000296301 1.82223e-05 0.000612477)
(-0.000279638 2.06644e-05 0.00055889)
(-0.000254813 1.99173e-05 0.00050127)
(-0.000223725 2.78599e-05 0.000433072)
(-0.00019482 3.22447e-05 0.00036102)
(-0.000172647 3.78056e-05 0.00028946)
(-0.000150105 3.15488e-05 0.000301782)
(-0.00017778 3.11374e-05 0.000370564)
(-0.000212988 2.81469e-05 0.000439749)
(-0.000240442 2.39351e-05 0.000507152)
(-0.000265078 2.55708e-05 0.000566471)
(-0.000281538 2.46381e-05 0.000621052)
(-0.000293436 2.80532e-05 0.00066392)
(-0.000299756 2.50823e-05 0.000698507)
(-0.000303896 2.66325e-05 0.000721428)
(-0.000302195 1.97381e-05 0.000736998)
(-0.000297294 1.83974e-05 0.00074103)
(-0.00028755 5.69255e-06 0.000734548)
(-0.000273853 5.24097e-07 0.000715039)
(-0.000260296 -1.77205e-05 0.00068054)
(-0.000237747 -2.76115e-05 0.000633456)
(-0.000219571 -4.45517e-05 0.000570918)
(-0.000200792 -4.64804e-05 0.00049299)
(-0.000155246 -3.28787e-05 0.00038132)
(-0.000214906 -6.83991e-05 0.000520017)
(-0.000299436 -7.78363e-05 0.000713874)
(-0.000238872 -5.73359e-05 0.000615645)
(-0.000195421 -4.33284e-05 0.00050403)
(-0.000129648 -2.27002e-05 0.000378025)
(-0.000167281 -4.34889e-05 0.000505824)
(-0.000206697 -3.75558e-05 0.000663932)
(-0.00014092 -1.97927e-05 0.00053266)
(-8.23185e-05 -8.12908e-06 0.000384723)
(-9.73086e-05 -1.96842e-05 0.000500388)
(-0.000115996 -1.73339e-05 0.000645343)
(-7.42013e-05 -7.65632e-06 0.000495833)
(-4.34873e-05 -4.03402e-07 0.000348928)
(-5.11533e-05 4.3247e-07 0.000427349)
(-5.89248e-05 5.51296e-06 0.000516795)
(-2.95772e-05 8.30907e-06 0.000357686)
(-3.47739e-05 9.86603e-06 0.000424354)
(-3.16045e-05 1.62966e-05 0.000507135)
(-1.06356e-05 1.51975e-05 0.000347808)
(-1.33062e-05 1.62933e-05 0.000397341)
(-1.53034e-05 1.81587e-05 0.000441718)
(-1.96384e-05 2.3372e-05 0.000497558)
(-2.23009e-05 2.67889e-05 0.000556363)
(-1.46298e-05 1.68445e-05 0.000358304)
(-1.89334e-05 1.95312e-05 0.00039159)
(-2.15237e-05 1.99029e-05 0.000414376)
(-2.88384e-05 2.42752e-05 0.000441489)
(-2.86396e-05 2.54481e-05 0.000458106)
(-3.30585e-05 3.05589e-05 0.000469294)
(-3.21032e-05 3.28774e-05 0.000479208)
(-3.29788e-05 3.65719e-05 0.000477642)
(-3.229e-05 3.72232e-05 0.000478295)
(-3.46893e-05 3.57695e-05 0.000465144)
(-3.60939e-05 3.48978e-05 0.000460921)
(-3.69194e-05 3.7431e-05 0.000433702)
(-3.59516e-05 4.12218e-05 0.000413922)
(-3.45077e-05 3.84879e-05 0.000375016)
(-2.76349e-05 2.38332e-05 0.000360039)
(-3.80463e-05 4.4544e-05 0.000463224)
(-1.55044e-05 3.16991e-05 0.000327953)
(-5.36135e-05 5.45603e-05 0.000504716)
(-4.63596e-05 5.19465e-05 0.000465459)
(-3.36069e-05 5.32442e-05 0.000411041)
(-6.9427e-05 6.86689e-05 0.00062569)
(-4.70532e-05 7.2727e-05 0.000527808)
(-3.5853e-05 5.63757e-05 0.000433478)
(-7.53976e-05 6.94232e-05 0.000645376)
(-5.39892e-05 6.61186e-05 0.000539384)
(-4.25381e-05 5.14893e-05 0.000438105)
(-8.09822e-05 6.82382e-05 0.000642024)
(-5.6906e-05 7.13462e-05 0.000514776)
(-4.73685e-05 4.58554e-05 0.000406496)
(-6.70244e-05 7.23501e-05 0.000521069)
(-5.14094e-05 5.39694e-05 0.000421129)
(-6.09718e-05 6.50057e-05 0.000488755)
(-2.25303e-05 5.00206e-05 0.000319252)
(-5.97568e-05 5.71363e-05 0.000429075)
(-7.16853e-05 7.8554e-05 0.000538011)
(-7.7754e-05 0.000107436 0.000590881)
(-5.34875e-05 7.71935e-05 0.000448391)
(-5.86004e-05 8.20662e-05 0.000499314)
(-1.68941e-05 6.23737e-05 0.000311546)
(-4.9287e-05 6.65547e-05 0.000401024)
(-6.0179e-05 7.84777e-05 0.00048688)
(-7.3269e-05 9.27859e-05 0.000543792)
(-8.7543e-05 9.25709e-05 0.000589925)
(-9.83863e-05 9.06322e-05 0.000615674)
(-0.000106902 0.000101761 0.000615325)
(-0.00363935 -0.00813875 0.0233053)
(-0.00375612 -0.00692592 0.022387)
(-0.00382482 -0.00576688 0.0212347)
(-0.00379959 -0.00463529 0.0203015)
(-0.00377336 -0.00521587 0.0209987)
(-0.00378941 -0.00643515 0.0219532)
(-0.00371564 -0.00769671 0.0231744)
(-0.00359072 -0.00899448 0.0241243)
(-0.00283035 -0.0225567 0.0378814)
(-0.00316615 -0.0217329 0.0370172)
(-0.00355441 -0.0206625 0.035679)
(-0.0033117 -0.0201966 0.0351166)
(-0.00313088 -0.0195783 0.0343051)
(-0.00310432 -0.00142553 0.0171111)
(-0.00336484 -0.00233984 0.0181248)
(-0.00355715 -0.00336435 0.0193765)
(-0.00367746 -0.00454824 0.0203812)
(-0.00373967 -0.00574132 0.0217381)
(-0.00376062 -0.00706375 0.0227628)
(-0.00368036 -0.00841353 0.0240214)
(-0.0035528 -0.00980768 0.0250497)
(-9.2109e-05 7.46799e-05 0.000530209)
(-8.26912e-05 6.93151e-05 0.000477561)
(-4.00333e-05 7.21103e-05 0.00040554)
(-2.93103e-05 6.37006e-05 0.000341603)
(-7.40277e-05 8.87313e-05 0.000508974)
(-0.000127374 0.000116185 0.000690126)
(-9.30334e-05 0.00010619 0.000599752)
(-8.54809e-05 7.22035e-05 0.000505219)
(-3.7652e-05 6.67198e-05 0.000396188)
(-8.06446e-05 8.55305e-05 0.0005521)
(-0.000136105 0.000113221 0.000712235)
(-9.08045e-05 9.58584e-05 0.000578273)
(-7.10447e-05 5.57075e-05 0.000447558)
(-8.81035e-05 9.22264e-05 0.000585112)
(-0.00012216 8.89163e-05 0.000743081)
(-7.29848e-05 7.37118e-05 0.000532714)
(-2.73022e-05 5.25108e-05 0.000380213)
(-4.93263e-05 5.32492e-05 0.000464468)
(-6.59095e-05 7.91191e-05 0.000530566)
(-2.2221e-05 5.90433e-05 0.00038124)
(-4.38841e-05 5.75833e-05 0.00045692)
(-6.00203e-05 8.07963e-05 0.000516587)
(-2.00009e-05 5.57081e-05 0.000358502)
(-3.45839e-05 5.2456e-05 0.000406296)
(-4.46186e-05 7.11708e-05 0.000436564)
(-5.25139e-05 8.47364e-05 0.000498501)
(-6.08364e-05 7.55056e-05 0.000535214)
(-6.55619e-05 9.03454e-05 0.000609913)
(-8.71905e-05 7.63788e-05 0.000630817)
(-2.08441e-05 5.31157e-05 0.000384705)
(-2.91089e-05 3.98622e-05 0.000404685)
(-3.5681e-05 6.26478e-05 0.000413205)
(-3.44937e-05 6.49073e-05 0.000436961)
(-3.55954e-05 6.15592e-05 0.000438844)
(-3.15692e-05 5.95009e-05 0.000444756)
(-3.60846e-05 5.72159e-05 0.000435822)
(-3.21818e-05 4.79993e-05 0.000428621)
(-3.29059e-05 4.51134e-05 0.000410507)
(-1.80974e-05 3.79331e-05 0.000384824)
(3.20591e-06 3.65771e-05 0.000371014)
(-3.85725e-06 2.02467e-05 0.000336177)
(-3.7156e-06 6.6836e-05 0.0005262)
(-6.82862e-06 5.65297e-05 0.000486289)
(-5.95444e-06 4.63618e-05 0.000419067)
(3.82736e-06 3.28443e-05 0.000381424)
(-3.87111e-06 9.64976e-06 0.000328099)
(-8.8302e-06 4.87769e-05 0.00046403)
(-2.84578e-06 3.46743e-05 0.000400658)
(-1.59806e-05 9.73607e-06 0.000333165)
(-3.05184e-05 4.05647e-05 0.000467439)
(-1.6529e-05 2.19285e-05 0.000404351)
(-3.07784e-05 3.53082e-06 0.000332282)
(-5.8148e-05 2.52792e-05 0.000481231)
(-0.000100255 2.39828e-05 0.00065536)
(-8.1372e-05 9.43171e-06 0.000513386)
(-6.17666e-05 1.49574e-05 0.000398227)
(-0.000118167 6.22341e-06 0.000556499)
(-0.000209536 -1.14064e-05 0.00065316)
(-0.000159734 -3.28389e-05 0.000503701)
(-0.000131409 -3.17345e-05 0.000379837)
(-0.000181242 -2.27157e-05 0.000506875)
(-0.000238653 -2.74251e-05 0.000638144)
(-0.000317906 -4.47125e-05 0.000744399)
(-0.000233425 -5.26513e-05 0.000559179)
(-0.000168241 -1.83828e-05 0.000417237)
(-0.000218302 -2.32361e-05 0.000531598)
(-0.000239438 -1.33552e-05 0.000606784)
(-0.000260437 1.1412e-05 0.000664312)
(-0.000285394 2.273e-05 0.000705211)
(-0.000302374 4.27477e-05 0.000730153)
(-0.00031837 4.70916e-05 0.000742649)
(-0.000328523 5.81705e-05 0.000737527)
(-0.000333581 5.71193e-05 0.00072637)
(-0.000335175 6.171e-05 0.000702436)
(-0.000330833 5.85841e-05 0.000676117)
(-0.000323833 5.99698e-05 0.000638815)
(-0.000310135 5.5812e-05 0.000596558)
(-0.000291273 5.54477e-05 0.000543537)
(-0.000263524 5.24304e-05 0.000490615)
(-0.000813435 0.000187074 0.00160342)
(-0.000933793 0.000160311 0.00159331)
(-0.00112106 4.33217e-05 0.00181123)
(-0.00136869 -0.000142398 0.00230146)
(-0.00164915 -0.000253318 0.00334369)
(-0.0014883 -0.000168255 0.00309781)
(-0.00122945 -7.25988e-05 0.00272085)
(-0.00101191 6.72865e-05 0.00223836)
(-0.00119742 8.43134e-05 0.00247594)
(-0.00193817 -7.48428e-05 0.00356982)
(-0.00159901 -0.000128326 0.00323754)
(-0.00140438 -6.93069e-05 0.0029681)
(-0.00119874 -9.13109e-06 0.00267891)
(-0.000936506 4.50615e-05 0.00228713)
(-0.000731826 0.00012466 0.00180125)
(-0.000816484 0.00014492 0.00194372)
(-0.00131127 7.11739e-05 0.00291738)
(-0.00302434 -0.0228279 0.0384778)
(-0.00341873 -0.0220546 0.0376075)
(-0.00383718 -0.0210181 0.0362818)
(-0.00416619 -0.0197877 0.0352038)
(-0.00384437 -0.0194184 0.0346306)
(-0.00357692 -0.0189347 0.0340569)
(-0.00336628 -0.0183107 0.0332696)
(-0.00320058 -0.0175765 0.0325402)
(-0.00298244 -0.0188512 0.0335839)
(-0.00296489 -0.00858967 0.0236117)
(-0.00312183 -0.00739993 0.0226723)
(-0.00325653 -0.00624347 0.0215049)
(-0.00329146 -0.00509004 0.0205605)
(-0.00302158 -0.00161249 0.0175825)
(-0.00328881 -0.00261441 0.0186352)
(-0.0034968 -0.00374704 0.019963)
(-0.00362353 -0.00502678 0.0209921)
(-0.00370091 -0.00633298 0.0224329)
(-0.00373022 -0.00774354 0.023476)
(-0.00366049 -0.00918775 0.0247942)
(-0.00353636 -0.0106578 0.0258421)
(-0.00289109 -0.00946973 0.0244352)
(-0.00305329 -0.0082134 0.0234674)
(-0.00319022 -0.00695979 0.0222293)
(-0.0032364 -0.00573129 0.0212659)
(-0.00237281 -0.00659231 0.0215746)
(-0.00155079 -0.00783566 0.0224781)
(-0.00245719 -0.00591229 0.0208551)
(-0.00235459 -0.00702881 0.0218881)
(-0.00226546 -0.00776643 0.0226407)
(-0.0020836 -0.00897935 0.0238115)
(-0.00129188 -0.00989828 0.0247518)
(-0.00217211 -0.00817079 0.022995)
(-0.00200157 -0.00925344 0.0240397)
(-0.00192184 -0.0101054 0.0248973)
(-0.00185161 -0.0109191 0.0257818)
(-0.00283064 -0.0102919 0.0253607)
(-0.0029933 -0.00895121 0.0243132)
(-0.00313802 -0.00762325 0.0230446)
(-0.00317821 -0.00629669 0.0220089)
(-0.00320058 -0.00508717 0.0206236)
(-0.00316521 -0.0038564 0.0196025)
(-0.00306183 -0.00277613 0.0183329)
(-0.00287547 -0.00178726 0.0173048)
(-0.00161818 0.000590682 0.0129238)
(-0.00193709 0.000259586 0.0140645)
(-0.00226119 -0.000197988 0.0154514)
(-0.00259117 -0.000893997 0.016563)
(-0.00290496 -0.00172973 0.0179899)
(-0.00318695 -0.00282518 0.0191299)
(-0.00340656 -0.00404353 0.0205228)
(-0.00355574 -0.00543324 0.0216458)
(-0.00364876 -0.00683615 0.023156)
(-0.00370293 -0.00835219 0.0242865)
(-0.00364705 -0.00988489 0.0256556)
(-0.00353893 -0.0114463 0.0267789)
(-0.00337438 -0.0129682 0.0283552)
(-0.00325222 -0.0144179 0.0294466)
(-0.00280384 -0.0111464 0.0261487)
(-0.00296101 -0.00975193 0.0250863)
(-0.00309327 -0.00834051 0.0237566)
(-0.00312791 -0.00694148 0.022705)
(-0.00313543 -0.0056192 0.0212315)
(-0.00309836 -0.00430154 0.0201889)
(-0.00297957 -0.00310875 0.0188426)
(-0.00279036 -0.00203374 0.0177781)
(-0.00195086 -0.00111497 0.0157584)
(-0.00215619 -0.000487649 0.0156011)
(-0.00187939 3.98229e-05 0.0141861)
(-0.00159201 0.000445256 0.0130219)