/*--------------------------------*- C++ -*----------------------------------*\
| =========                 |                                                 |
| \\      /  F ield         | OpenFOAM: The Open Source CFD Toolbox           |
|  \\    /   O peration     | Version:  5.0                                   |
|   \\  /    A nd           | Web:      www.OpenFOAM.org                      |
|    \\/     M anipulation  |                                                 |
\*---------------------------------------------------------------------------*/
FoamFile
{
    version     2.0;
    format      ascii;
    class       volVectorField;
    location    "60";
    object      wallShearStressRest;
}
// * * * * * * * * * * * * * * * * * * * * * * * * * * * * * * * * * * * * * //

dimensions      [1 -1 -2 0 0 0 0];

internalField   uniform (0 0 0);

boundaryField
{
    Wall_Aorta
    {
        type            calculated;
        value           nonuniform List<vector> 
8098
(
(-0.00225004 -0.00151464 0.00947342)
(-0.00282769 -0.000890931 0.00918425)
(-0.00341604 -0.0018561 0.00898675)
(-0.00287 -0.0015746 0.00914151)
(-0.00310761 -0.00156051 0.00985274)
(-0.0023606 -0.00166349 0.00981362)
(-0.00297906 -0.000723238 0.00954733)
(-0.00365295 -0.00200152 0.00945286)
(-0.00325321 -0.00127268 0.00998521)
(-0.00265163 -0.00108753 0.00983536)
(-0.0030608 -0.000420204 0.0102521)
(-0.00375238 -0.00181544 0.00960334)
(-0.00342454 -0.00130115 0.0103154)
(-0.00322343 -0.00159961 0.0102175)
(-0.00207272 -0.00136356 0.00976534)
(-0.00273947 -0.000467904 0.00994127)
(-0.00345038 -0.0017541 0.00945072)
(-0.00240719 -0.00145271 0.0100462)
(-0.00319931 -0.000772786 0.00959331)
(-0.00388489 -0.00185383 0.00953179)
(-0.00321774 -0.00106152 0.0102768)
(-0.0029141 -0.0011053 0.00930959)
(-0.00260596 -0.00134084 0.00874213)
(-0.00271111 -0.00130478 0.00894226)
(-0.00202565 -0.00141803 0.00996743)
(-0.0027175 -0.000600815 0.00933015)
(-0.00332582 -0.0016297 0.00925733)
(-0.00183061 -0.00140719 0.009211)
(-0.00258116 -0.000691344 0.00876286)
(-0.00312288 -0.0017607 0.00881268)
(-0.00293625 -0.00104427 0.00965867)
(-0.00280179 -0.00145488 0.00930224)
(-0.00297686 -0.00151457 0.00954733)
(-0.00321893 -0.000983373 0.0101372)
(-0.00286168 -0.00138033 0.0097923)
(-0.00304233 -0.00138758 0.0101623)
(-0.00206018 -0.00138443 0.0104047)
(-0.00271257 -0.000660584 0.0103661)
(-0.00350453 -0.00162681 0.00978097)
(-0.00332995 -0.00110071 0.0109092)
(-0.00315395 -0.00112305 0.0103565)
(-0.00199145 -0.00129727 0.00990894)
(-0.00276442 -0.000529546 0.00954685)
(-0.00338956 -0.0015682 0.00960973)
(-0.00293747 -0.00131645 0.00995653)
(-0.00317426 -0.00137354 0.0104727)
(-0.00285294 -0.00105753 0.0102951)
(-0.00336581 -0.000102146 0.00984766)
(-0.00414963 -0.00131853 0.010184)
(-0.00401197 -0.000761178 0.0108549)
(-0.003703 -0.0011662 0.0106588)
(-0.00293075 -0.00120941 0.010329)
(-0.00334387 -0.000407332 0.00962658)
(-0.00419162 -0.00155073 0.00989438)
(-0.00375916 -0.000948359 0.0104773)
(-0.00360517 -0.0011368 0.00990261)
(-0.00371029 -0.00108903 0.0103706)
(-0.00246938 -0.00141241 0.0099075)
(-0.00326891 -0.000419154 0.00960844)
(-0.00395645 -0.00168105 0.00973023)
(-0.00312669 -0.00139417 0.00966043)
(-0.0034474 -0.00132218 0.0101163)
(-0.0035356 -0.00109232 0.0104261)
(-0.00374967 -0.000804463 0.0105666)
(-0.00292165 -0.000600122 0.0101392)
(-0.00351685 -0.000119561 0.0101069)
(-0.00410427 -0.00140857 0.0104761)
(-0.00426159 -0.000690781 0.011237)
(-0.00384388 -0.00115105 0.0109651)
(-0.00301093 -0.00053342 0.0103615)
(-0.00364759 -0.000115548 0.0103231)
(-0.00417027 -0.00136598 0.0107677)
(-0.00429179 -0.000638801 0.0114509)
(-0.00392127 -0.00117607 0.0111622)
(-0.00303311 -0.00081495 0.0106108)
(-0.00376164 -0.000188833 0.0102393)
(-0.00451522 -0.00117058 0.0105227)
(-0.00370192 -0.000763348 0.0102879)
(-0.00406549 -0.000848822 0.0108197)
(-0.00198867 -0.0023637 0.00527557)
(-0.0019966 -0.00180078 0.00522282)
(-0.00197498 -0.00318181 0.00418996)
(-0.00198635 -0.00228357 0.00558263)
(-0.00213695 -0.00164624 0.00536893)
(-0.00229322 -0.003151 0.00455929)
(-0.0020073 -0.00220826 0.00553044)
(-0.00241447 -0.00208706 0.00683189)
(-0.00229746 -0.00150744 0.00685118)
(-0.00273652 -0.00292892 0.00557461)
(-0.00239292 -0.00227683 0.00707193)
(-0.00250381 -0.00189448 0.00693973)
(-0.00271154 -0.00326362 0.00604699)
(-0.00255602 -0.00204265 0.00725292)
(-0.0024305 -0.00158077 0.00732031)
(-0.00288384 -0.00290268 0.00601002)
(-0.00204896 -0.0021879 0.00588538)
(-0.00224811 -0.00153197 0.00558603)
(-0.00234691 -0.0029961 0.00482532)
(-0.00235377 -0.00212182 0.00645476)
(-0.00228437 -0.00158289 0.00654617)
(-0.00254862 -0.00295217 0.0050874)
(-0.00207646 -0.00204866 0.0061011)
(-0.00197299 -0.00236032 0.00556133)
(-0.00220256 -0.00173074 0.00531143)
(-0.00224374 -0.0031979 0.00456932)
(-0.00204341 -0.00217854 0.00578223)
(-0.00215476 -0.00228765 0.00595957)
(-0.00221535 -0.00163193 0.00612712)
(-0.00244607 -0.00313449 0.00485631)
(-0.00205061 -0.00211133 0.00571751)
(-0.00231397 -0.00236577 0.00640804)
(-0.00251807 -0.001834 0.00615183)
(-0.00273332 -0.00331987 0.00540072)
(-0.00237295 -0.00243303 0.00611478)
(-0.00234858 -0.00198089 0.00595983)
(-0.00223738 -0.00325609 0.0051161)
(-0.00221161 -0.00153813 0.00590416)
(-0.00276067 -0.00291951 0.00492424)
(-0.00247636 -0.00234631 0.00592294)
(-0.00264244 -0.0017864 0.00571157)
(-0.00274779 -0.00321835 0.00489636)
(-0.00238478 -0.0022656 0.00615333)
(-0.00229745 -0.00231293 0.00656706)
(-0.0022367 -0.00188841 0.00639742)
(-0.00223828 -0.00313764 0.00550341)
(-0.00212938 -0.00157211 0.00639316)
(-0.00284529 -0.00286946 0.00535182)
(-0.00233782 -0.00234683 0.00677203)
(-0.00203358 -0.00259409 0.0051366)
(-0.00215627 -0.00194303 0.00509312)
(-0.00204571 -0.00343541 0.00415175)
(-0.00205098 -0.00193793 0.00540119)
(-0.00225797 -0.00317995 0.00416065)
(-0.00225409 -0.00176235 0.00511146)
(-0.00245694 -0.00337822 0.00416324)
(-0.00202349 -0.00167027 0.00540605)
(-0.00254076 -0.00305208 0.00446049)
(-0.00200202 -0.00220654 0.00523885)
(-0.00207542 -0.00248064 0.00531373)
(-0.00206597 -0.0019277 0.0052479)
(-0.00196937 -0.00329982 0.00422949)
(-0.00214923 -0.00176889 0.00539033)
(-0.00256668 -0.00310864 0.00443237)
(-0.0021097 -0.00261701 0.00499836)
(-0.00215194 -0.00194424 0.00487068)
(-0.00202466 -0.00352126 0.00413354)
(-0.00217365 -0.00208716 0.00455014)
(-0.00239422 -0.00332774 0.00410516)
(-0.00204903 -0.00226378 0.00518374)
(-0.00212045 -0.00225445 0.00499762)
(-0.00216658 -0.00302475 0.00481432)
(-0.0021787 -0.00226841 0.00470971)
(-0.00187793 -0.00396861 0.00382502)
(-0.00217771 -0.00257094 0.00447875)
(-0.00222034 -0.00384472 0.00402079)
(-0.00209011 -0.00253787 0.00495768)
(-0.00218721 -0.00265585 0.00494383)
(-0.00232875 -0.00250035 0.00516445)
(-0.00233493 -0.00395976 0.00394477)
(-0.00246041 -0.0024197 0.0051508)
(-0.00253779 -0.00405759 0.00394055)
(-0.00228572 -0.00308925 0.00449132)
(-0.00238628 -0.0022416 0.00426617)
(-0.00206987 -0.00401345 0.00356515)
(-0.00240527 -0.0023162 0.00412421)
(-0.00249095 -0.00383274 0.00373208)
(-0.0021422 -0.00263545 0.00458899)
(-0.00220843 -0.00194476 0.00448041)
(-0.0019409 -0.00341183 0.00369823)
(-0.00222472 -0.00183592 0.00480165)
(-0.00240227 -0.00313627 0.00367908)
(-0.00231199 -0.00167556 0.00463155)
(-0.00238484 -0.0030626 0.003471)
(-0.0024347 -0.00170217 0.00462469)
(-0.00247912 -0.00305004 0.0034676)
(-0.00214513 -0.00192618 0.00495935)
(-0.00227351 -0.00322766 0.00374611)
(-0.002308 -0.00176199 0.004656)
(-0.00247318 -0.00330327 0.00376049)
(-0.00218355 -0.00247093 0.00460538)
(-0.00239104 -0.0025177 0.00464901)
(-0.00222294 -0.00229956 0.00505192)
(-0.00235017 -0.00161892 0.00492872)
(-0.00212089 -0.00303256 0.00416499)
(-0.00239104 -0.00156004 0.00518563)
(-0.00270961 -0.00292068 0.0044063)
(-0.00227854 -0.00242901 0.00469349)
(-0.00232727 -0.00168339 0.00447272)
(-0.0021184 -0.00316102 0.00371451)
(-0.00232539 -0.00171407 0.00436272)
(-0.002454 -0.00296311 0.00393734)
(-0.00226358 -0.00210354 0.00506228)
(-0.00238503 -0.00216078 0.00506166)
(-0.00240839 -0.00178711 0.00438946)
(-0.00245981 -0.00303579 0.00394073)
(-0.00242416 -0.00183614 0.00446954)
(-0.00244224 -0.00310076 0.00401262)
(-0.00241316 -0.00226937 0.00508392)
(-0.00241326 -0.00230897 0.00512904)
(-0.00218275 -0.00257041 0.00532148)
(-0.00223658 -0.00194584 0.00503616)
(-0.00215675 -0.00337281 0.00421215)
(-0.00214974 -0.00229775 0.0054459)
(-0.00230446 -0.0017149 0.00568852)
(-0.00237497 -0.00317592 0.0044091)
(-0.00215546 -0.00222657 0.00531631)
(-0.00201052 -0.00171573 0.00518698)
(-0.00233485 -0.00297319 0.00412737)
(-0.00211254 -0.00146173 0.0048712)
(-0.00248895 -0.00301063 0.00406722)
(-0.0022462 -0.00250499 0.00506738)
(-0.00218879 -0.0018176 0.00489678)
(-0.00210226 -0.00332835 0.00408333)
(-0.00212633 -0.00187796 0.00446914)
(-0.00225168 -0.00294223 0.00399446)
(-0.00209521 -0.00231081 0.00555057)
(-0.00239166 -0.00232034 0.00548935)
(-0.00221703 -0.00167644 0.00522018)
(-0.00217816 -0.00316074 0.00450839)
(-0.00230578 -0.00166959 0.00475068)
(-0.00265729 -0.00302316 0.00459633)
(-0.00232313 -0.00217095 0.00569519)
(-0.00228461 -0.00209382 0.00536339)
(-0.00222282 -0.00221253 0.00525642)
(-0.00226254 -0.00213794 0.00507199)
(-0.00207699 -0.00237589 0.00439751)
(-0.00235752 -0.00168536 0.0042553)
(-0.00209747 -0.00321564 0.00367589)
(-0.00205424 -0.00212236 0.00479302)
(-0.0022759 -0.00160024 0.00480943)
(-0.00246456 -0.0029095 0.00384842)
(-0.00224043 -0.00216291 0.00476673)
(-0.0023747 -0.00185547 0.00424838)
(-0.00246945 -0.0031526 0.00382953)
(-0.0025132 -0.00188904 0.00426589)
(-0.00250088 -0.00321636 0.00380943)
(-0.00237081 -0.00222737 0.00481009)
(-0.0024596 -0.00229595 0.00487532)
(-0.00256959 -0.00246247 0.00517288)
(-0.00266618 -0.00407595 0.00390025)
(-0.00258271 -0.00239796 0.00511975)
(-0.00270243 -0.00403737 0.00388393)
(-0.00249607 -0.00232735 0.00408745)
(-0.00255564 -0.00391941 0.00366066)
(-0.00251337 -0.00230892 0.00407501)
(-0.00257348 -0.00383851 0.00361084)
(-0.0025621 -0.00230008 0.00496469)
(-0.00273775 -0.00390661 0.00370518)
(-0.00245283 -0.00213953 0.00474674)
(-0.002585 -0.00369077 0.00352969)
(-0.00245505 -0.0023012 0.00401496)
(-0.00252636 -0.00378467 0.00355217)
(-0.00239621 -0.00228338 0.00403756)
(-0.00244429 -0.00373215 0.00350272)
(-0.00251103 -0.00181437 0.00464794)
(-0.00251762 -0.00314078 0.00343435)
(-0.00247103 -0.00185086 0.00470045)
(-0.00248132 -0.00322083 0.00346229)
(-0.0023663 -0.00185511 0.00464216)
(-0.00234207 -0.00322804 0.00339954)
(-0.00223515 -0.00188015 0.00463877)
(-0.0021907 -0.00320406 0.00342089)
(-0.00246309 -0.00261166 0.00462241)
(-0.00245814 -0.00260977 0.00464285)
(-0.00237404 -0.00262071 0.00460615)
(-0.00228529 -0.00261753 0.004611)
(-0.00237424 -0.00208446 0.0045909)
(-0.00241178 -0.00357937 0.0033621)
(-0.00236366 -0.00214573 0.00456411)
(-0.00230283 -0.00362604 0.0033495)
(-0.0022928 -0.00226597 0.00397344)
(-0.00229364 -0.00369689 0.00342078)
(-0.00228157 -0.00230955 0.00395418)
(-0.00209886 -0.00369385 0.00341116)
(-0.00235802 -0.00238564 0.0046924)
(-0.00231224 -0.00386467 0.00350615)
(-0.00261763 -0.00269489 0.00420237)
(-0.0023896 -0.00405213 0.00386134)
(-0.00237473 -0.00330323 0.00441767)
(-0.00213384 -0.00195942 0.00425876)
(-0.00235702 -0.00381823 0.00352406)
(-0.00265301 -0.00309107 0.00503075)
(-0.00216726 -0.00192224 0.00462554)
(-0.00207853 -0.00327327 0.00344771)
(-0.0020979 -0.00210752 0.00480585)
(-0.00201998 -0.00340625 0.00356701)
(-0.00229622 -0.00241155 0.00424001)
(-0.00201476 -0.00369688 0.00387549)
(-0.00256151 -0.00353731 0.0049645)
(-0.0022821 -0.00205385 0.00479969)
(-0.00225895 -0.00400332 0.00410857)
(-0.00218897 -0.00265477 0.00456441)
(-0.00221695 -0.00264769 0.00461473)
(-0.00226899 -0.00287314 0.00473288)
(-0.00218941 -0.002427 0.00507349)
(-0.00203805 -0.00397131 0.00406581)
(-0.00247095 -0.00185523 0.00454125)
(-0.0024735 -0.0031735 0.00413041)
(-0.00250753 -0.00183074 0.00451301)
(-0.00248322 -0.00313248 0.0041736)
(-0.00246815 -0.00234832 0.00516553)
(-0.00252055 -0.00232723 0.00517287)
(-0.00250889 -0.001845 0.0045061)
(-0.00245166 -0.00319836 0.0041305)
(-0.00244292 -0.00185483 0.00445096)
(-0.00231345 -0.0031885 0.00404838)
(-0.00251518 -0.00231505 0.00510421)
(-0.00248429 -0.0023319 0.00506028)
(-0.00239139 -0.00195201 0.00441306)
(-0.00222164 -0.00325718 0.00395884)
(-0.00236867 -0.00204454 0.00443991)
(-0.0020502 -0.00337862 0.00397458)
(-0.00244089 -0.00248103 0.00509096)
(-0.00236385 -0.00250802 0.0050336)
(-0.00232199 -0.00303774 0.00464335)
(-0.00217459 -0.00166607 0.00463302)
(-0.00223366 -0.00352132 0.00395141)
(-0.00223742 -0.00269707 0.00516507)
(-0.00220292 -0.0022071 0.00459311)
(-0.0019245 -0.00363281 0.0042982)
(-0.00252351 -0.00192652 0.00424296)
(-0.00252469 -0.00329284 0.00380419)
(-0.00248539 -0.00191969 0.00429431)
(-0.00246795 -0.00334849 0.00382651)
(-0.00250743 -0.00244289 0.00496861)
(-0.00249824 -0.00250097 0.00502702)
(-0.00239577 -0.00195619 0.00426352)
(-0.00233844 -0.00338408 0.00379738)
(-0.00223488 -0.00194935 0.00420138)
(-0.00216353 -0.00336462 0.00378357)
(-0.00242313 -0.00254033 0.00498095)
(-0.00226751 -0.00245797 0.00494755)
(-0.00221281 -0.00201298 0.00419163)
(-0.00201349 -0.0034062 0.00380837)
(-0.00234166 -0.00289694 0.00445114)
(-0.00200239 -0.00160824 0.00438698)
(-0.00221137 -0.00347625 0.00392213)
(-0.00227876 -0.0024557 0.00484936)
(-0.00223232 -0.00254406 0.00480549)
(-0.00243177 -0.00269474 0.00492132)
(-0.00229637 -0.00294667 0.00505981)
(-0.00208677 -0.00203214 0.00488339)
(-0.00192693 -0.00354661 0.00395078)
(-0.00240137 -0.00240609 0.00442125)
(-0.0020656 -0.0037371 0.00415486)
(-0.0024634 -0.00278965 0.00501858)
(-0.00174783 -0.00169538 0.0036697)
(-0.00187721 -0.00108833 0.00363721)
(-0.00195597 -0.00228895 0.00259657)
(-0.00177564 -0.00146142 0.00378679)
(-0.00176775 -0.00174699 0.00481016)
(-0.00188528 -0.00123242 0.00510015)
(-0.00208647 -0.00244489 0.00368815)
(-0.00187362 -0.00191392 0.00445436)
(-0.00192985 -0.00140142 0.00456758)
(-0.00189196 -0.00259121 0.00338769)
(-0.00176889 -0.00188592 0.00412816)
(-0.00193751 -0.0012082 0.0039812)
(-0.00195722 -0.00244003 0.00304411)
(-0.00196997 -0.00121377 0.00476778)
(-0.00244131 -0.00239028 0.00365698)
(-0.00186695 -0.00167863 0.00459435)
(-0.00212404 -0.00236152 0.00532961)
(-0.00207497 -0.00168595 0.00506934)
(-0.00205896 -0.00305844 0.00409583)
(-0.00173897 -0.00182646 0.00452998)
(-0.0019695 -0.00132247 0.00456626)
(-0.00202356 -0.00253212 0.00356658)
(-0.00196102 -0.00179326 0.00493379)
(-0.00182208 -0.00207486 0.00505734)
(-0.00214468 -0.00145148 0.00509204)
(-0.00220631 -0.00288056 0.0042713)
(-0.00179569 -0.00169542 0.00498236)
(-0.00213029 -0.00218763 0.00515434)
(-0.00206801 -0.00162532 0.00510284)
(-0.00202145 -0.00288724 0.0039684)
(-0.00205327 -0.0013864 0.00511489)
(-0.00252331 -0.00263243 0.00406517)
(-0.00209495 -0.00205563 0.00537431)
(-0.00181972 -0.00156745 0.00405619)
(-0.00187267 -0.0010195 0.00406189)
(-0.0021755 -0.00214084 0.00291428)
(-0.00171066 -0.00164352 0.00410303)
(-0.00179095 -0.00111372 0.00401104)
(-0.00199623 -0.00228077 0.0031186)
(-0.00181231 -0.00154222 0.00424644)
(-0.00185334 -0.00100708 0.00418181)
(-0.00220737 -0.00209238 0.003075)
(-0.0018298 -0.00154762 0.00455655)
(-0.00181326 -0.00106727 0.00442871)
(-0.00224848 -0.00205373 0.00324889)
(-0.00164404 -0.00164139 0.00465575)
(-0.0017535 -0.00110692 0.00450971)
(-0.00202376 -0.00224347 0.00366935)
(-0.001981 -0.00171024 0.00520238)
(-0.00183863 -0.00115338 0.00496173)
(-0.00236514 -0.00217319 0.00371981)
(-0.00161379 -0.0016276 0.00424613)
(-0.00172267 -0.00110252 0.00418931)
(-0.00195185 -0.0022213 0.00333281)
(-0.0016952 -0.00152161 0.00444148)
(-0.00169998 -0.00151891 0.0046607)
(-0.00177638 -0.00169375 0.00395932)
(-0.00178714 -0.00119503 0.00392579)
(-0.00181459 -0.00229577 0.00309409)
(-0.00185631 -0.00105202 0.00416889)
(-0.00226072 -0.00206578 0.00310695)
(-0.00174566 -0.00151934 0.00420561)
(-0.00181584 -0.00149218 0.00412907)
(-0.00190036 -0.00166407 0.00582471)
(-0.00191967 -0.00116385 0.00571432)
(-0.00240128 -0.00232029 0.00471277)
(-0.0019552 -0.00172258 0.0054978)
(-0.00189764 -0.00123541 0.00542264)
(-0.0024474 -0.00227651 0.0042891)
(-0.00172364 -0.00190104 0.00500642)
(-0.00206547 -0.00125447 0.00535706)
(-0.00234697 -0.00249272 0.00475061)
(-0.00176978 -0.00176672 0.00554045)
(-0.00190937 -0.00125854 0.00515086)
(-0.00233363 -0.00237805 0.00460981)
(-0.00179516 -0.00158696 0.00551023)
(-0.00179265 -0.00123647 0.00555105)
(-0.00221636 -0.00215513 0.00428803)
(-0.00163307 -0.00172526 0.0050924)
(-0.00194442 -0.00112248 0.00551)
(-0.00229942 -0.00241295 0.00490768)
(-0.00219478 -0.00160285 0.00582658)
(-0.00205038 -0.00147477 0.00579905)
(-0.00233132 -0.00182817 0.0057377)
(-0.00212233 -0.00163061 0.00566336)
(-0.00188136 -0.00158312 0.00574413)
(-0.00184014 -0.00158887 0.00586744)
(-0.00193923 -0.00109098 0.00590028)
(-0.00233351 -0.00220816 0.00473698)
(-0.00152343 -0.00163156 0.00497523)
(-0.00185134 -0.00110294 0.00516804)
(-0.00223192 -0.00222313 0.00481377)
(-0.0020375 -0.00158217 0.00592767)
(-0.00190919 -0.0014789 0.0058824)
(-0.00175345 -0.00169579 0.00505059)
(-0.00212103 -0.00113523 0.00550361)
(-0.00240817 -0.002428 0.0049497)
(-0.00173603 -0.00179865 0.00532345)
(-0.00198723 -0.00107364 0.00525861)
(-0.00237701 -0.00235198 0.00509466)
(-0.0023308 -0.0016729 0.00583153)
(-0.00213548 -0.00160593 0.00587225)
(-0.00247915 -0.00172029 0.00635529)
(-0.00216545 -0.00158051 0.00607116)
(-0.00183541 -0.0017144 0.0055486)
(-0.00226622 -0.00112678 0.00607436)
(-0.00242685 -0.00238574 0.00536246)
(-0.00254907 -0.00175412 0.00655497)
(-0.00235167 -0.00173645 0.00671329)
(-0.00203654 -0.00151448 0.00679771)
(-0.00203285 -0.00109036 0.00658508)
(-0.00257729 -0.00206382 0.00553407)
(-0.0019084 -0.00161816 0.00632473)
(-0.00219429 -0.00099678 0.00653899)
(-0.00257136 -0.00227766 0.00596454)
(-0.00193615 -0.00166658 0.00656017)
(-0.00224043 -0.00104557 0.00654267)
(-0.00269644 -0.00223952 0.00627421)
(-0.00192169 -0.00154594 0.00625403)
(-0.00200087 -0.0010159 0.00570093)
(-0.00237853 -0.00222737 0.00532111)
(-0.00207123 -0.00153373 0.00652666)
(-0.00149848 -0.00148574 0.00636279)
(-0.00193549 -0.000956626 0.00597353)
(-0.00240738 -0.00200336 0.00568179)
(-0.00149018 -0.00133224 0.00562942)
(-0.00179932 -0.000821461 0.00608525)
(-0.00210292 -0.00180706 0.00521262)
(-0.00200184 -0.00120192 0.00649279)
(-0.00202433 -0.001627 0.00629115)
(-0.00217713 -0.00143548 0.00669651)
(-0.00171664 -0.00168408 0.00691871)
(-0.00210421 -0.000993806 0.00658081)
(-0.00265174 -0.00206073 0.00631271)
(-0.00226834 -0.00138297 0.00727327)
(-0.00251639 -0.00152169 0.00786043)
(-0.00213322 -0.00166932 0.00753129)
(-0.00180682 -0.00151856 0.00600817)
(-0.00197627 -0.00105611 0.00557937)
(-0.00231088 -0.00221959 0.0050735)
(-0.00176865 -0.00138633 0.00619764)
(-0.00177149 -0.000997907 0.00611037)
(-0.00217865 -0.00199016 0.00501879)
(-0.00171952 -0.00155741 0.00590012)
(-0.00207647 -0.00104371 0.00636701)
(-0.00240022 -0.00223932 0.00557098)
(-0.00203708 -0.00151964 0.00640171)
(-0.00251799 -0.00158226 0.00684225)
(-0.00226388 -0.00153216 0.00673892)
(-0.00191907 -0.00170762 0.00532305)
(-0.00186819 -0.00115774 0.0052984)
(-0.00222705 -0.00231145 0.00407896)
(-0.00182842 -0.00196411 0.00512052)
(-0.00190965 -0.00151596 0.0052695)
(-0.00184491 -0.00267503 0.00430534)
(-0.00176714 -0.00170673 0.00495379)
(-0.00181966 -0.00115341 0.00509523)
(-0.00212695 -0.00240735 0.00387567)
(-0.00173328 -0.00182663 0.00510948)
(-0.00188493 -0.00134241 0.00518109)
(-0.00204485 -0.00266055 0.00433835)
(-0.00192016 -0.00181118 0.00540476)
(-0.00192136 -0.00196813 0.00551264)
(-0.0021421 -0.00140216 0.00548483)
(-0.00227221 -0.00282671 0.00455465)
(-0.00201345 -0.00183461 0.00562823)
(-0.00214171 -0.00124904 0.00559165)
(-0.00229438 -0.00265119 0.0046329)
(-0.0020157 -0.00186196 0.00579245)
(-0.00187565 -0.00172925 0.00538383)
(-0.00197817 -0.00121622 0.00533858)
(-0.00215655 -0.00248508 0.00453807)
(-0.0018842 -0.00165042 0.00559362)
(-0.00192494 -0.00106626 0.00553517)
(-0.00237876 -0.00225668 0.00457243)
(-0.0018744 -0.00171414 0.00552778)
(-0.00204168 -0.0012327 0.00553673)
(-0.00226965 -0.00244592 0.00472958)
(-0.00199337 -0.00163306 0.00569876)
(-0.00188434 -0.00170385 0.00544417)
(-0.00208021 -0.00219286 0.00548762)
(-0.00200104 -0.00160919 0.00544723)
(-0.00207354 -0.0030726 0.00445265)
(-0.0019711 -0.00144622 0.0057285)
(-0.00264924 -0.00285175 0.00470458)
(-0.00208758 -0.00225891 0.00547838)
(-0.00212761 -0.00160982 0.00569585)
(-0.00233022 -0.00300771 0.00436477)
(-0.00196148 -0.00205026 0.00533696)
(-0.00211951 -0.00237571 0.00552275)
(-0.00198267 -0.0018078 0.00533541)
(-0.00200269 -0.00319802 0.0045834)
(-0.00201118 -0.00157086 0.00545744)
(-0.00254781 -0.00293693 0.00457809)
(-0.00196763 -0.00133268 0.00548993)
(-0.00243099 -0.0025659 0.0043937)
(-0.00201231 -0.00185717 0.00541123)
(-0.00198253 -0.00224786 0.00559544)
(-0.00212946 -0.00161783 0.00546507)
(-0.00232676 -0.00312409 0.00454206)
(-0.00201069 -0.0020171 0.00568319)
(-0.00202631 -0.00212637 0.00581245)
(-0.00218484 -0.00152404 0.00570162)
(-0.00231648 -0.00297823 0.00481217)
(-0.00201237 -0.00209652 0.00581966)
(-0.00196679 -0.00207774 0.00549679)
(-0.00181992 -0.00177433 0.00529656)
(-0.0018448 -0.0011975 0.00496973)
(-0.0021983 -0.00238008 0.00421419)
(-0.00172985 -0.00152978 0.00496657)
(-0.0019371 -0.00159096 0.00541183)
(-0.00207391 -0.00180293 0.0058767)
(-0.00220849 -0.00120921 0.00582723)
(-0.00242737 -0.0025654 0.00488472)
(-0.00195346 -0.00169205 0.00594227)
(-0.0022159 -0.00118779 0.00603594)
(-0.0024211 -0.0025004 0.0050072)
(-0.00217413 -0.00179442 0.00634384)
(-0.00209282 -0.00202593 0.00610491)
(-0.00228097 -0.00144796 0.00597687)
(-0.00239186 -0.0028868 0.00505503)
(-0.00209128 -0.00180529 0.00607326)
(-0.00221594 -0.00199016 0.00641334)
(-0.00234456 -0.00136447 0.00627764)
(-0.00250592 -0.00285123 0.00534989)
(-0.00225213 -0.00194523 0.00643938)
(-0.00206922 -0.00159086 0.00576072)
(-0.00221173 -0.00187619 0.00664503)
(-0.00242178 -0.00126543 0.00660553)
(-0.00257726 -0.00272639 0.00570638)
(-0.00218545 -0.00169231 0.00643821)
(-0.0022358 -0.00179114 0.00689137)
(-0.00249527 -0.00131164 0.00698587)
(-0.00262803 -0.0027038 0.00595238)
(-0.00246536 -0.00187829 0.00714761)
(-0.0023517 -0.00192122 0.00680765)
(-0.00209478 -0.00202722 0.00608204)
(-0.00180811 -0.00181063 0.00380931)
(-0.00173727 -0.00126733 0.00374402)
(-0.00172675 -0.00245946 0.00265694)
(-0.00170362 -0.00121927 0.00399689)
(-0.00204282 -0.0022229 0.00287674)
(-0.00201219 -0.00115179 0.00398572)
(-0.00232985 -0.00242166 0.00296836)
(-0.00196191 -0.00177562 0.00412883)
(-0.00207645 -0.00194078 0.00423524)
(-0.00210297 -0.00206763 0.00443291)
(-0.00222329 -0.00214427 0.00461914)
(-0.00243332 -0.00221874 0.00484385)
(-0.00178087 -0.00245029 0.00435813)
(-0.00202248 -0.00183382 0.00449124)
(-0.00172819 -0.00329487 0.00353707)
(-0.00172243 -0.00199604 0.00410564)
(-0.00177339 -0.00138733 0.00395039)
(-0.00166342 -0.00273462 0.00302243)
(-0.0017716 -0.00167095 0.00413414)
(-0.00179646 -0.00207431 0.00443004)
(-0.00189231 -0.00141931 0.00421947)
(-0.00189883 -0.00271563 0.00336902)
(-0.00168121 -0.00187159 0.00441404)
(-0.00173833 -0.00156766 0.00375515)
(-0.00194628 -0.00257977 0.00315669)
(-0.00197463 -0.00149041 0.00445746)
(-0.00206871 -0.00263805 0.00321483)
(-0.00182865 -0.00185456 0.00437036)
(-0.00172816 -0.00226069 0.00449618)
(-0.00182627 -0.00154157 0.0044498)
(-0.00158121 -0.00292042 0.00346659)
(-0.00199605 -0.00148066 0.00508481)
(-0.00244561 -0.00279955 0.00408896)
(-0.00183684 -0.00200977 0.00485988)
(-0.00186399 -0.00165017 0.00478876)
(-0.00213666 -0.00293146 0.00373235)
(-0.00174573 -0.00226747 0.00487614)
(-0.00188286 -0.00251499 0.00464693)
(-0.00191074 -0.00181421 0.004672)
(-0.0016619 -0.00339179 0.0036951)
(-0.00184491 -0.00213392 0.00452435)
(-0.00193266 -0.00331463 0.0040165)
(-0.0018461 -0.00188182 0.00476274)
(-0.00197212 -0.00212641 0.00463346)
(-0.00208814 -0.00336769 0.00396135)
(-0.00220697 -0.0023141 0.00496376)
(-0.00222515 -0.00364921 0.00425581)
(-0.00239976 -0.00257022 0.00526605)
(-0.00238209 -0.00394306 0.00447192)
(-0.00260153 -0.00280515 0.00557901)
(-0.00255853 -0.00416472 0.00478647)
(-0.00211604 -0.0015606 0.00465684)
(-0.00215415 -0.00281537 0.00334585)
(-0.00222089 -0.0016772 0.00494019)
(-0.00219211 -0.00294623 0.00355539)
(-0.00236595 -0.00184184 0.00519121)
(-0.0023156 -0.00313873 0.00372094)
(-0.0025358 -0.00196857 0.0055026)
(-0.00246986 -0.00328333 0.00398251)
(-0.00188896 -0.00246799 0.00516928)
(-0.00212109 -0.00270505 0.00545301)
(-0.00203174 -0.00210698 0.00524963)
(-0.00203039 -0.00341701 0.0040416)
(-0.00211412 -0.00207438 0.00525937)
(-0.00217835 -0.0035574 0.00410862)
(-0.00233213 -0.00296327 0.00573904)
(-0.00254278 -0.00313268 0.00598506)
(-0.00229324 -0.0022631 0.00541931)
(-0.00233768 -0.00376519 0.00424012)
(-0.00251633 -0.0024358 0.00563834)
(-0.00254154 -0.00396311 0.00439441)
(-0.00269036 -0.00308923 0.00512013)
(-0.00287418 -0.0023012 0.00528331)
(-0.00239713 -0.00391643 0.00423922)
(-0.00265195 -0.00241636 0.00512535)
(-0.00275609 -0.00252646 0.00527804)
(-0.00275292 -0.00381257 0.00455558)
(-0.00278454 -0.00255207 0.00526223)
(-0.0027422 -0.00385444 0.00454929)
(-0.00279718 -0.00256933 0.00519551)
(-0.00278486 -0.00387955 0.0045351)
(-0.00282118 -0.00258277 0.00518038)
(-0.00281956 -0.00387049 0.00450307)
(-0.00275497 -0.00182481 0.00517687)
(-0.00276561 -0.00329099 0.00397999)
(-0.00256699 -0.00187402 0.00499896)
(-0.00258775 -0.0031682 0.00375694)
(-0.00285797 -0.00258111 0.00509383)
(-0.00272882 -0.00378536 0.00439396)
(-0.00290126 -0.00294515 0.00488178)
(-0.00254696 -0.00188857 0.00512982)
(-0.00286277 -0.00370562 0.00424868)
(-0.00275121 -0.00298037 0.00576146)
(-0.00275893 -0.00437587 0.00493658)
(-0.00273175 -0.00296199 0.00577872)
(-0.0027779 -0.00439633 0.00502961)
(-0.00278363 -0.00316471 0.00567634)
(-0.00272964 -0.00444524 0.00505491)
(-0.00277233 -0.00288142 0.00626513)
(-0.00271148 -0.00439011 0.00490243)
(-0.00285001 -0.00207636 0.00562352)
(-0.00282687 -0.00359591 0.00428258)
(-0.00267845 -0.00301084 0.00583094)
(-0.00274031 -0.00310757 0.00589042)
(-0.0027297 -0.00319357 0.00592811)
(-0.00273492 -0.00333854 0.00617768)
(-0.00279854 -0.0033299 0.00614892)
(-0.00262248 -0.00250133 0.00569514)
(-0.00273394 -0.00416414 0.00452281)
(-0.00269505 -0.00246153 0.00567447)
(-0.00278985 -0.0041105 0.00452588)
(-0.00265472 -0.00376621 0.0053734)
(-0.00275963 -0.00265243 0.00504728)
(-0.00235728 -0.00464002 0.00438059)
(-0.00278165 -0.00333861 0.00607551)
(-0.00286175 -0.00234793 0.00547772)
(-0.00296854 -0.00425107 0.00454704)
(-0.00253715 -0.00299896 0.00514791)
(-0.00274318 -0.00276882 0.00609328)
(-0.00274743 -0.00435507 0.00472795)
(-0.00271553 -0.00272682 0.00595856)
(-0.0027503 -0.00428612 0.00467732)
(-0.00268877 -0.0028096 0.00591602)
(-0.00275876 -0.00425639 0.00462131)
(-0.00283672 -0.00289039 0.00502135)
(-0.00271589 -0.00418732 0.00459943)
(-0.00275694 -0.00329038 0.00591811)
(-0.00276926 -0.00325531 0.00581566)
(-0.00282354 -0.00315003 0.00563027)
(-0.00274929 -0.00301918 0.0054092)
(-0.00252652 -0.00267501 0.0047174)
(-0.00264511 -0.0043866 0.00454291)
(-0.00260037 -0.00271691 0.0046718)
(-0.00256104 -0.00434872 0.00446046)
(-0.00244187 -0.00285636 0.00487982)
(-0.00252768 -0.00283672 0.00484858)
(-0.00289691 -0.0036151 0.00516319)
(-0.00255097 -0.00234033 0.00503096)
(-0.00289978 -0.00439849 0.0045512)
(-0.00287145 -0.00315827 0.00562076)
(-0.00259795 -0.00304084 0.00489882)
(-0.00255057 -0.00235825 0.00518692)
(-0.00251942 -0.00409389 0.00420554)
(-0.00200606 -0.00239755 0.00508563)
(-0.00202156 -0.00173783 0.00500744)
(-0.00190364 -0.00312216 0.00404108)
(-0.00210196 -0.00164763 0.00517434)
(-0.00241862 -0.0029927 0.00419356)
(-0.00200149 -0.00214653 0.00533837)
(-0.0019704 -0.00226422 0.00502506)
(-0.00203016 -0.00244444 0.00503867)
(-0.0024396 -0.00177543 0.00750295)
(-0.00274821 -0.00143454 0.00762372)
(-0.00291967 -0.00280178 0.00683349)
(-0.00234733 -0.00182113 0.00698494)
(-0.00280351 -0.00139664 0.00758668)
(-0.00293908 -0.00268769 0.00688873)
(-0.00275775 -0.00190765 0.00783935)
(-0.00232472 -0.00157984 0.00703614)
(-0.00275988 -0.000995855 0.0071032)
(-0.00305886 -0.00230475 0.00708228)
(-0.00269301 -0.00172818 0.0078159)
(-0.00303809 -0.00120366 0.00776829)
(-0.00335176 -0.00281381 0.00719094)
(-0.00299179 -0.00176086 0.00780127)
(-0.00287349 -0.00187735 0.00783273)
(-0.00255157 -0.00162647 0.00702772)
(-0.00307327 -0.00115815 0.00759961)
(-0.00323071 -0.00256581 0.0069726)
(-0.00304753 -0.00174147 0.00785822)
(-0.00279226 -0.00144798 0.0078824)
(-0.00317013 -0.00097326 0.00790245)
(-0.0034848 -0.00254013 0.0072822)
(-0.00265263 -0.00149921 0.00732915)
(-0.00320276 -0.00102529 0.0079108)
(-0.00338865 -0.0024036 0.0071734)
(-0.00315265 -0.00156111 0.00812876)
(-0.00309763 -0.00153851 0.00794621)
(-0.00288269 -0.00162432 0.00782672)
(-0.00256683 -0.00123977 0.00779814)
(-0.00280135 -0.000932538 0.00734938)
(-0.00313219 -0.00216251 0.00704444)
(-0.00256087 -0.00111758 0.00819414)
(-0.00263352 -0.0008665 0.00799734)
(-0.00323611 -0.00186469 0.00715378)
(-0.00315677 -0.00157807 0.00780242)
(-0.00301296 -0.00170304 0.00781167)
(-0.00237519 -0.00196937 0.00561891)
(-0.00278916 -0.00134358 0.00551244)
(-0.0027868 -0.00282111 0.00495584)
(-0.00255196 -0.00180941 0.00601132)
(-0.00257991 -0.00133444 0.00587227)
(-0.00246237 -0.00258094 0.00506638)
(-0.00251031 -0.00172595 0.00623766)
(-0.00272961 -0.00127616 0.00608282)
(-0.00295566 -0.00267403 0.00552115)
(-0.00268951 -0.00170561 0.00625159)
(-0.00254544 -0.00112848 0.00600637)
(-0.00305465 -0.00246662 0.00513853)
(-0.00259788 -0.0017218 0.00589799)
(-0.00278571 -0.00177485 0.00612336)
(-0.00266446 -0.00118725 0.00596152)
(-0.00267698 -0.00260254 0.00501969)
(-0.00291473 -0.00119353 0.00578854)
(-0.0032252 -0.00253562 0.00541672)
(-0.00253207 -0.00210683 0.00716426)
(-0.00274887 -0.00157846 0.00684749)