/*--------------------------------*- C++ -*----------------------------------*\
| =========                 |                                                 |
| \\      /  F ield         | OpenFOAM: The Open Source CFD Toolbox           |
|  \\    /   O peration     | Version:  5.0                                   |
|   \\  /    A nd           | Web:      www.OpenFOAM.org                      |
|    \\/     M anipulation  |                                                 |
\*---------------------------------------------------------------------------*/
FoamFile
{
    version     2.0;
    format      ascii;
    class       volVectorField;
    location    "60";
    object      wallShearStressHyper;
}
// * * * * * * * * * * * * * * * * * * * * * * * * * * * * * * * * * * * * * //

dimensions      [1 -1 -2 0 0 0 0];

internalField   uniform (0 0 0);

boundaryField
{
    Wall_Aorta
    {
        type            calculated;
        value           nonuniform List<vector> 
8098
(
(-0.00129971 -0.00238696 0.00919799)
(-0.00173363 -0.00246638 0.00882919)
(-0.00245605 -0.00264162 0.00935215)
(-0.00198186 -0.00245411 0.008807)
(-0.00199152 -0.00294248 0.00931686)
(-0.00129891 -0.00219707 0.00876257)
(-0.00199658 -0.00204887 0.00840581)
(-0.00245904 -0.00239673 0.00930587)
(-0.00204149 -0.00219281 0.00904253)
(-0.00173792 -0.00138461 0.00807964)
(-0.0019607 -0.00170729 0.00824372)
(-0.00255777 -0.00204088 0.00892222)
(-0.0022335 -0.00195825 0.00869508)
(-0.00209771 -0.00266755 0.00880716)
(-0.00128098 -0.00200248 0.00854881)
(-0.00162765 -0.00208923 0.00850613)
(-0.0023214 -0.00226035 0.00929938)
(-0.00145877 -0.00197192 0.00854312)
(-0.00205917 -0.00190663 0.00810377)
(-0.00269065 -0.00229149 0.00878681)
(-0.00218603 -0.00197422 0.00886251)
(-0.0019842 -0.00229635 0.00919688)
(-0.00205996 -0.00250615 0.00893453)
(-0.0018738 -0.00300663 0.00909496)
(-0.00118011 -0.00214985 0.00946158)
(-0.00184433 -0.00218392 0.00889001)
(-0.0023757 -0.00235217 0.00981643)
(-0.00104516 -0.00226565 0.00904664)
(-0.00167004 -0.00231763 0.00856161)
(-0.00223045 -0.00252454 0.00961476)
(-0.00201865 -0.00221986 0.00957722)
(-0.00201165 -0.00231082 0.00881511)
(-0.00192034 -0.00285262 0.00895574)
(-0.00217665 -0.0021036 0.0097457)
(-0.00207383 -0.00206526 0.00893857)
(-0.00204333 -0.00265957 0.00925787)
(-0.00137192 -0.00196291 0.00903289)
(-0.00185967 -0.00218398 0.00891584)
(-0.00246448 -0.00209409 0.00938684)
(-0.00231589 -0.0018642 0.00956805)
(-0.00204792 -0.0020372 0.00924254)
(-0.00112549 -0.00194216 0.00919405)
(-0.00184973 -0.00193052 0.00881755)
(-0.00237902 -0.0021801 0.00989732)
(-0.00214573 -0.00191763 0.00897147)
(-0.00219128 -0.00248604 0.00934851)
(-0.0018547 -0.00105165 0.00798851)
(-0.00242734 -0.000918259 0.00756856)
(-0.00289828 -0.00117887 0.00864365)
(-0.00280504 -0.000769699 0.00817087)
(-0.00266581 -0.00149535 0.0080684)
(-0.00190229 -0.0013138 0.00818541)
(-0.00228518 -0.00129374 0.00763105)
(-0.00289843 -0.00165639 0.00858714)
(-0.00250965 -0.00137212 0.00851116)
(-0.00260251 -0.00130386 0.00792652)
(-0.00261854 -0.00180267 0.00818967)
(-0.00162631 -0.00150187 0.00802538)
(-0.00239807 -0.00138957 0.00772463)
(-0.00279687 -0.00164463 0.00852003)
(-0.00220694 -0.00177798 0.00813898)
(-0.00233008 -0.00215744 0.00841794)
(-0.00243957 -0.00145431 0.00851535)
(-0.00258655 -0.00112462 0.00834868)
(-0.00211116 -0.000171418 0.00748814)
(-0.00273319 -0.00056145 0.00746125)
(-0.00297622 -0.00089233 0.00849562)
(-0.00308235 -0.000289223 0.00817171)
(-0.00294723 -0.00117764 0.00800356)
(-0.00217197 4.99383e-05 0.00740972)
(-0.00282695 -0.000445589 0.00737009)
(-0.00307812 -0.000631685 0.00848643)
(-0.00295046 -0.000110583 0.00791582)
(-0.00291589 -0.00101621 0.00769732)
(-0.00206211 -0.000446089 0.00770886)
(-0.00279085 -0.000410703 0.00737523)
(-0.00331953 -0.00060525 0.00825834)
(-0.00259153 -0.000442101 0.00743776)
(-0.00289834 -0.000919928 0.00759488)
(-0.00138796 -0.00335518 0.00671274)
(-0.00152943 -0.00336298 0.00668847)
(-0.00133634 -0.00415755 0.00670974)
(-0.00135059 -0.00324894 0.00695402)
(-0.00161004 -0.00319786 0.00676152)
(-0.00178262 -0.00406521 0.00710973)
(-0.0013062 -0.00388551 0.00732298)
(-0.00146639 -0.00259511 0.00711084)
(-0.00117593 -0.00286747 0.00722021)
(-0.00191686 -0.00334723 0.00738168)
(-0.00129638 -0.00261028 0.00677124)
(-0.00172442 -0.00278245 0.00668703)
(-0.00178706 -0.00356971 0.00721675)
(-0.00151148 -0.00242942 0.00712697)
(-0.00124053 -0.00279499 0.00722663)
(-0.00193618 -0.00315657 0.00737672)
(-0.0012614 -0.00303315 0.00703323)
(-0.00166236 -0.00303566 0.00676791)
(-0.00173265 -0.00388575 0.00734116)
(-0.00151146 -0.00281727 0.00716399)
(-0.00142464 -0.0030354 0.00739455)
(-0.00177353 -0.00367343 0.00731692)
(-0.00132465 -0.00363457 0.00734719)
(-0.00141925 -0.0031101 0.00665257)
(-0.00172112 -0.00319674 0.0063666)
(-0.00181117 -0.00387945 0.00689966)
(-0.00137486 -0.00375361 0.00737853)
(-0.00147381 -0.00290126 0.00669693)
(-0.00155289 -0.00296842 0.0069323)
(-0.00192419 -0.00373459 0.00705851)
(-0.00146205 -0.00360929 0.00690969)
(-0.00163397 -0.00252427 0.0062467)
(-0.00190283 -0.00268899 0.00604089)
(-0.00200372 -0.00343087 0.00669821)
(-0.00166786 -0.00280494 0.00634315)
(-0.00189004 -0.00295469 0.00620633)
(-0.00163151 -0.00358103 0.00655839)
(-0.00143507 -0.00262555 0.00645558)
(-0.00219856 -0.00346077 0.00650418)
(-0.00182941 -0.00246065 0.00583247)
(-0.00201364 -0.00249966 0.0056407)
(-0.00206914 -0.00326063 0.00619045)
(-0.00167921 -0.00311377 0.00637481)
(-0.00127847 -0.00277423 0.00670925)
(-0.00171442 -0.00291522 0.00663421)
(-0.00143428 -0.00352855 0.0069672)
(-0.00130296 -0.00275969 0.00693153)
(-0.00215389 -0.00348546 0.00697485)
(-0.00158061 -0.00323677 0.00692999)
(-0.00109136 -0.00383833 0.00686754)
(-0.00144133 -0.00375818 0.00673326)
(-0.00119734 -0.00466867 0.0069466)
(-0.00112107 -0.00369063 0.00733716)
(-0.0012547 -0.00459529 0.00683679)
(-0.00107962 -0.00360533 0.0071641)
(-0.0015035 -0.00496368 0.00713247)
(-0.00127748 -0.00322813 0.00713864)
(-0.00185424 -0.00437479 0.00704823)
(-0.00115682 -0.00418615 0.0071431)
(-0.00154566 -0.00329922 0.00650779)
(-0.00164759 -0.00337642 0.00644734)
(-0.00137641 -0.00404825 0.00646733)
(-0.00138541 -0.00321127 0.00687839)
(-0.00188694 -0.00422776 0.00668708)
(-0.00123243 -0.00369321 0.00633916)
(-0.00125482 -0.00355913 0.00634476)
(-0.00118833 -0.00454712 0.00644093)
(-0.00153923 -0.00368722 0.00602467)
(-0.00138282 -0.00459893 0.00638808)
(-0.00144515 -0.00397689 0.00682274)
(-0.001375 -0.00393587 0.00669505)
(-0.00105477 -0.00442276 0.00708594)
(-0.00115374 -0.00420044 0.00696602)
(-0.00117057 -0.00549391 0.00725375)
(-0.00159049 -0.00449165 0.0066224)
(-0.00154546 -0.00566909 0.00734695)
(-0.0011375 -0.00452185 0.00707447)
(-0.00119675 -0.00455511 0.00713109)
(-0.00163511 -0.00434508 0.00743028)
(-0.00162922 -0.00576232 0.00716357)
(-0.00182492 -0.00436226 0.00733886)
(-0.00186358 -0.00595288 0.00711251)
(-0.00138331 -0.00407863 0.00602076)
(-0.00152183 -0.0036966 0.00571947)
(-0.00144275 -0.00504884 0.00598651)
(-0.00172297 -0.00372995 0.00568106)
(-0.00182063 -0.00511489 0.00601627)
(-0.00151648 -0.00343552 0.00579776)
(-0.00177919 -0.00333639 0.0055659)
(-0.00146375 -0.00416852 0.00571821)
(-0.00168911 -0.00304374 0.0060337)
(-0.00169894 -0.00400498 0.00544223)
(-0.00166786 -0.00294614 0.00577445)
(-0.00164859 -0.00386967 0.00513625)
(-0.001739 -0.00292177 0.00578834)
(-0.00174667 -0.00378442 0.00515109)
(-0.00141135 -0.00341705 0.00654521)
(-0.00134253 -0.00441134 0.0059521)
(-0.00140653 -0.00318837 0.00613461)
(-0.00169078 -0.00448379 0.006014)
(-0.00139845 -0.00393964 0.00606933)
(-0.00166283 -0.00387709 0.00615992)
(-0.0017722 -0.002411 0.00524354)
(-0.0019591 -0.00245218 0.00512968)
(-0.00179622 -0.00299902 0.00538893)
(-0.00179356 -0.00222278 0.005605)
(-0.00223431 -0.0031273 0.00568573)
(-0.00190195 -0.00269666 0.00523624)
(-0.00178661 -0.00256927 0.00516195)
(-0.00175633 -0.0033665 0.00543146)
(-0.00190897 -0.00254481 0.00526691)
(-0.00201548 -0.00338148 0.00548909)
(-0.00177172 -0.00288704 0.00564099)
(-0.00186923 -0.002898 0.00580605)
(-0.0020552 -0.00263859 0.00542167)
(-0.00205959 -0.00342215 0.00555535)
(-0.0022583 -0.00272978 0.00556828)
(-0.00218554 -0.00351065 0.00562943)
(-0.00203703 -0.00300208 0.00600486)
(-0.00226245 -0.00311543 0.00618732)
(-0.00165534 -0.00320521 0.00627528)
(-0.00190516 -0.00323031 0.00598107)
(-0.00162828 -0.00394596 0.00626442)
(-0.001571 -0.00288397 0.00612857)
(-0.00162371 -0.00299335 0.00643731)
(-0.00192404 -0.00369383 0.0064195)
(-0.00163925 -0.00358056 0.00648953)
(-0.00171095 -0.00294135 0.00646931)
(-0.00180959 -0.00381613 0.00605959)
(-0.00173939 -0.00286593 0.00621494)
(-0.00209069 -0.00400145 0.00614188)
(-0.00180885 -0.00298532 0.00581141)
(-0.00177402 -0.00284449 0.00581013)
(-0.00178505 -0.00367411 0.00591621)
(-0.0021002 -0.00290129 0.00560238)
(-0.00196302 -0.00365608 0.00587156)
(-0.00142689 -0.00381589 0.00704278)
(-0.00177788 -0.00266013 0.00574092)
(-0.00164259 -0.0025803 0.00561571)
(-0.001633 -0.0035077 0.0059012)
(-0.00190907 -0.00251376 0.00542125)
(-0.00218814 -0.00353395 0.00619697)
(-0.0018963 -0.00282108 0.00600683)
(-0.00178402 -0.0028756 0.00586913)
(-0.00188203 -0.00308398 0.00613004)
(-0.00183077 -0.00306926 0.00610635)
(-0.00164237 -0.00308839 0.00535118)
(-0.00174625 -0.00288826 0.00533249)
(-0.0016877 -0.00377657 0.0054366)
(-0.00154492 -0.00366486 0.00621424)
(-0.00180413 -0.00266496 0.00603453)
(-0.00214402 -0.00373526 0.00577545)
(-0.00181766 -0.0034037 0.00606919)
(-0.00179847 -0.00292767 0.00542209)
(-0.0018474 -0.0038607 0.00547476)
(-0.00191708 -0.0029197 0.00546473)
(-0.00182398 -0.00390032 0.00549052)
(-0.00188128 -0.00335492 0.00612728)
(-0.00202868 -0.00336647 0.00617786)
(-0.00201177 -0.00442636 0.00741103)
(-0.00205735 -0.00602731 0.00705042)
(-0.00215854 -0.00439451 0.00737653)
(-0.00220747 -0.00600918 0.0070237)
(-0.00193555 -0.0037619 0.00573332)
(-0.00198931 -0.00523851 0.00603187)
(-0.00212842 -0.00374853 0.0057961)
(-0.00216408 -0.00519674 0.00604213)
(-0.00226923 -0.00429246 0.00726159)
(-0.00231099 -0.00587016 0.00681979)
(-0.00230497 -0.00408507 0.00706377)
(-0.00236131 -0.00549548 0.00655348)
(-0.00224236 -0.00374667 0.00580396)
(-0.00228472 -0.00515133 0.00605932)
(-0.002348 -0.00371379 0.0058834)
(-0.0023638 -0.00507764 0.00608442)
(-0.00188473 -0.00298255 0.00590287)
(-0.00189996 -0.00383821 0.00522489)
(-0.00208703 -0.00298719 0.00599627)
(-0.00211152 -0.00391359 0.00531758)
(-0.002188 -0.00297236 0.00597541)
(-0.00218272 -0.00392153 0.0052937)
(-0.00228801 -0.00298766 0.00598103)
(-0.00227124 -0.00386606 0.00532841)
(-0.00188465 -0.0039495 0.0062196)
(-0.0020889 -0.00393313 0.00629523)
(-0.00219576 -0.00393265 0.00629924)
(-0.00230719 -0.00391609 0.00632668)
(-0.00229982 -0.00396393 0.00692003)
(-0.00232168 -0.00522572 0.00637089)
(-0.00235972 -0.00395054 0.00690635)
(-0.00231653 -0.00521438 0.00635672)
(-0.00237373 -0.00364412 0.00582104)
(-0.00230333 -0.00498696 0.00602321)
(-0.00243171 -0.00359838 0.00575919)
(-0.00219635 -0.00488734 0.00595378)
(-0.00242836 -0.00406021 0.00705361)
(-0.00241258 -0.00544978 0.00651628)
(-0.00267026 -0.00433938 0.00638807)
(-0.0026284 -0.00567179 0.00702694)
(-0.00276899 -0.00408765 0.00602825)
(-0.00246775 -0.00330454 0.0059363)
(-0.00244814 -0.00473935 0.00608804)
(-0.00311024 -0.00468715 0.00724152)
(-0.00233206 -0.00301703 0.00589685)
(-0.00232636 -0.00389296 0.00528308)
(-0.00224489 -0.00308561 0.00605265)
(-0.00225332 -0.00396338 0.00534736)
(-0.00222205 -0.0034374 0.00535096)
(-0.00219275 -0.00427717 0.00564608)
(-0.00288117 -0.00399124 0.00592988)
(-0.00246884 -0.00315127 0.00583347)
(-0.00243774 -0.00439405 0.00591311)
(-0.00235806 -0.00392494 0.00623676)
(-0.0024458 -0.00387949 0.0062607)
(-0.00251001 -0.00417986 0.0063303)
(-0.00264788 -0.00351888 0.00659914)
(-0.00235716 -0.00482742 0.00642484)
(-0.00228951 -0.00280352 0.00564793)
(-0.00221212 -0.00360893 0.00568207)
(-0.00228246 -0.00278677 0.00560818)
(-0.00222909 -0.00355708 0.00569831)
(-0.00233878 -0.00329643 0.00635024)
(-0.00233669 -0.00331875 0.00639385)
(-0.00221262 -0.00276311 0.00557398)
(-0.00220699 -0.00359 0.00564019)
(-0.00212409 -0.00268469 0.0054772)
(-0.00210566 -0.00352116 0.00552972)
(-0.00224478 -0.00328095 0.00628293)
(-0.002162 -0.00321041 0.00615103)
(-0.00208264 -0.00264867 0.00532668)
(-0.00205813 -0.00348236 0.00541714)
(-0.00212801 -0.00263877 0.00521317)
(-0.00194763 -0.00356436 0.00536671)
(-0.00212341 -0.00317104 0.00594595)
(-0.00211763 -0.00307867 0.00570313)
(-0.00215946 -0.00307075 0.00516425)
(-0.00207157 -0.00233984 0.00523104)
(-0.00202728 -0.00351332 0.00545077)
(-0.00202473 -0.00317648 0.00568825)
(-0.0020017 -0.0026793 0.00505022)
(-0.00178962 -0.003599 0.00564708)
(-0.00199557 -0.00288767 0.00545091)
(-0.00191763 -0.00392926 0.00553217)
(-0.00213281 -0.00286213 0.00550809)
(-0.00209914 -0.00396771 0.00556846)
(-0.00210275 -0.00343402 0.00623709)
(-0.00219703 -0.0034677 0.00628776)
(-0.00217491 -0.00287667 0.00548272)
(-0.00214467 -0.00398727 0.00555856)
(-0.00222623 -0.00283757 0.00541254)
(-0.00220183 -0.00393538 0.00554073)
(-0.00219701 -0.00347537 0.00622142)
(-0.00218468 -0.00335615 0.00615243)
(-0.00230002 -0.00289531 0.00533524)
(-0.0021801 -0.00394576 0.00547663)
(-0.00249063 -0.00332041 0.00531069)
(-0.00219311 -0.00262019 0.00539376)
(-0.00222869 -0.00379062 0.00558466)
(-0.00228307 -0.00337304 0.00602718)
(-0.00224045 -0.00354151 0.0059209)
(-0.00255561 -0.00385125 0.00617125)
(-0.00224501 -0.00408937 0.00619128)
(-0.00214806 -0.00289739 0.00592035)
(-0.00188104 -0.00403749 0.00568442)
(-0.002067 -0.00325228 0.00541936)
(-0.00202068 -0.00415366 0.00573353)
(-0.00240013 -0.00355964 0.0060281)
(-0.00147914 -0.00407347 0.00733521)
(-0.00184883 -0.00369144 0.00726237)
(-0.00200409 -0.00512228 0.00725345)
(-0.00149098 -0.00450467 0.00796659)
(-0.00171872 -0.00315971 0.00718053)
(-0.00155904 -0.00323493 0.00767346)
(-0.00201321 -0.00412126 0.00717618)
(-0.00168632 -0.00369143 0.00736801)
(-0.0017608 -0.00352989 0.00752163)
(-0.00164232 -0.00459658 0.00721478)
(-0.00129938 -0.0039886 0.00753822)
(-0.00170387 -0.00359282 0.00731434)
(-0.00192244 -0.00474997 0.00745102)
(-0.00145667 -0.00338357 0.00817331)
(-0.00225227 -0.00478348 0.00771728)
(-0.00129446 -0.00445174 0.00822933)
(-0.00142792 -0.00395375 0.00768713)
(-0.00159034 -0.00375966 0.00736776)
(-0.00140265 -0.00472154 0.00750134)
(-0.00150865 -0.00343942 0.00721466)
(-0.00178332 -0.00338085 0.00726183)
(-0.0019534 -0.00436681 0.00728945)
(-0.0014317 -0.00427772 0.00821238)
(-0.00113002 -0.00374125 0.0075209)
(-0.00163406 -0.00360256 0.00757343)
(-0.00181812 -0.00465749 0.0079014)
(-0.00131723 -0.00412972 0.00785257)
(-0.00156481 -0.00394368 0.00785515)
(-0.00161573 -0.00379233 0.0077955)
(-0.00147072 -0.0047375 0.00762968)
(-0.00131091 -0.00352873 0.00822857)
(-0.00207086 -0.00485585 0.00792674)
(-0.00129323 -0.00448769 0.00837849)
(-0.00176273 -0.00379042 0.00735593)
(-0.00135841 -0.00375105 0.00757987)
(-0.00223522 -0.00464061 0.00720705)
(-0.00142662 -0.00364299 0.00699541)
(-0.00171565 -0.00330301 0.00694689)
(-0.00196051 -0.00471211 0.00707458)
(-0.00166387 -0.00354189 0.00720697)
(-0.0013629 -0.00354791 0.00733284)
(-0.0022305 -0.00437403 0.0070709)
(-0.00161154 -0.00332625 0.007147)
(-0.00127008 -0.00344632 0.00724369)
(-0.00215987 -0.00409167 0.00691017)
(-0.00125675 -0.0032364 0.00696003)
(-0.00163058 -0.00308624 0.00699178)
(-0.00187691 -0.00430021 0.00716108)
(-0.00168959 -0.00331791 0.00749521)
(-0.00122701 -0.00339108 0.00746163)
(-0.00220634 -0.00398856 0.00708351)
(-0.00127476 -0.00340479 0.00685197)
(-0.00164813 -0.0031574 0.00692145)
(-0.00188574 -0.0044503 0.00705696)
(-0.00141157 -0.00379141 0.00754535)
(-0.00140137 -0.00361818 0.0075418)
(-0.00149256 -0.00387711 0.00711661)
(-0.00180523 -0.00354528 0.00712844)
(-0.0016675 -0.00483052 0.00718634)
(-0.00161635 -0.00331882 0.00783807)
(-0.00228721 -0.00469423 0.00734254)
(-0.00146281 -0.00396687 0.00761734)
(-0.00145859 -0.00441558 0.00805453)
(-0.00144453 -0.00298691 0.00732649)
(-0.0012093 -0.00324797 0.0073696)
(-0.00213851 -0.00376324 0.00733011)
(-0.00154865 -0.00317131 0.00738108)
(-0.00126082 -0.00334927 0.00750096)
(-0.00221527 -0.00384166 0.00732132)
(-0.00134197 -0.00334046 0.00691348)
(-0.00177241 -0.00301589 0.0071811)
(-0.00207429 -0.00416683 0.0074946)
(-0.00120076 -0.00324313 0.00724679)
(-0.00133896 -0.00335456 0.00704329)
(-0.00205614 -0.00396595 0.00729746)
(-0.00123022 -0.0031251 0.0073497)
(-0.00101792 -0.00340796 0.00757795)
(-0.00179545 -0.00387023 0.00720804)
(-0.00102916 -0.00319476 0.00684763)
(-0.00154611 -0.00299799 0.0071371)
(-0.00184862 -0.00405721 0.00758246)
(-0.00168625 -0.00315235 0.00746922)
(-0.00131428 -0.0036027 0.00772726)
(-0.00205958 -0.00331349 0.00755849)
(-0.00154614 -0.0036851 0.00769954)
(-0.00127363 -0.00367169 0.00775734)
(-0.00129281 -0.00291687 0.00735551)
(-0.00111128 -0.00324815 0.00769984)
(-0.00193788 -0.00357071 0.00735406)
(-0.000885359 -0.0031763 0.00690219)
(-0.00111337 -0.00312838 0.00701046)
(-0.00180876 -0.00390234 0.00759195)
(-0.00150407 -0.00321534 0.00763909)
(-0.001134 -0.0036495 0.00779564)
(-0.00117589 -0.00285074 0.00653986)
(-0.00164449 -0.00260263 0.00681033)
(-0.00195886 -0.00384422 0.00750689)
(-0.00105874 -0.00311607 0.00696175)
(-0.00122156 -0.00291633 0.00676541)
(-0.00196467 -0.00382136 0.00770096)
(-0.00176789 -0.0027461 0.0069924)
(-0.00139605 -0.00315462 0.00711106)
(-0.00176545 -0.00300956 0.00758999)
(-0.00132841 -0.00335195 0.00746952)
(-0.00121102 -0.00245347 0.00645712)
(-0.0015947 -0.00229486 0.00670549)
(-0.00182335 -0.00319394 0.00718394)
(-0.00186444 -0.00251586 0.00708456)
(-0.00140145 -0.00304745 0.00727924)
(-0.00118256 -0.00243614 0.00733023)
(-0.00102608 -0.00274296 0.00738509)
(-0.00174711 -0.00304266 0.00759489)
(-0.00113247 -0.00242309 0.00680145)
(-0.001548 -0.00230794 0.00692875)
(-0.00178014 -0.00316222 0.00749246)
(-0.00113446 -0.00257813 0.00708941)
(-0.00129374 -0.00255064 0.00703107)
(-0.0019425 -0.00313607 0.00768629)
(-0.00112178 -0.00243771 0.00687391)
(-0.00118081 -0.00254851 0.00663787)
(-0.0017163 -0.0031722 0.00733362)
(-0.00124387 -0.00293004 0.00726208)
(-0.000754231 -0.00297384 0.00802164)
(-0.000997072 -0.00298516 0.00742067)
(-0.0018389 -0.00350822 0.00794596)
(-0.000941984 -0.00286626 0.00725165)
(-0.000773851 -0.00301259 0.00768914)
(-0.0015458 -0.00338114 0.00774996)
(-0.00131587 -0.0029777 0.00822783)
(-0.00142422 -0.00312725 0.00770566)
(-0.00118711 -0.003378 0.00800994)
(-0.000882588 -0.00277019 0.00767062)
(-0.00117466 -0.00259328 0.0072021)
(-0.00183926 -0.00307501 0.00786644)
(-0.00141028 -0.00280761 0.00811546)
(-0.0017371 -0.00281922 0.00860488)
(-0.00131389 -0.00349353 0.00858058)
(-0.00089516 -0.00298076 0.00731651)
(-0.00104799 -0.00318089 0.0072342)
(-0.00179126 -0.00368306 0.00763157)
(-0.00106397 -0.0028225 0.00747977)
(-0.000793217 -0.00326053 0.00765441)
(-0.00161524 -0.00349858 0.00750884)
(-0.000866698 -0.00293156 0.00725115)
(-0.00137405 -0.00292387 0.00755252)
(-0.00164028 -0.00380363 0.00794421)
(-0.00103729 -0.00356062 0.00792826)
(-0.00167762 -0.00282531 0.00776306)
(-0.00125919 -0.00325391 0.00782791)
(-0.00174406 -0.00294678 0.00719988)
(-0.00125986 -0.00319323 0.00739673)
(-0.0021253 -0.00363704 0.00705473)
(-0.00132331 -0.00339781 0.00716729)
(-0.00158501 -0.0034311 0.00738139)
(-0.00143332 -0.00425036 0.00734787)
(-0.00168913 -0.00297359 0.00706582)
(-0.00127897 -0.00317507 0.00741771)
(-0.00213899 -0.00382365 0.00707534)
(-0.0011904 -0.00320065 0.00701111)
(-0.0014939 -0.00320468 0.00716516)
(-0.0017512 -0.0042586 0.00744172)
(-0.00129664 -0.00389005 0.00778805)
(-0.00125889 -0.00313208 0.00717536)
(-0.00155637 -0.00309662 0.00714738)
(-0.00178018 -0.00398263 0.00742548)
(-0.00138757 -0.0029207 0.00709724)
(-0.00158124 -0.0028841 0.00713053)
(-0.00175407 -0.00376303 0.00736563)
(-0.00119745 -0.00369556 0.0076679)
(-0.00127581 -0.00307061 0.00706745)
(-0.00154808 -0.00300745 0.00712758)
(-0.00177424 -0.00403253 0.00749515)
(-0.00154241 -0.00290827 0.00721273)
(-0.00127132 -0.00312987 0.00735077)
(-0.00218354 -0.00353224 0.00734442)
(-0.00130453 -0.00298352 0.00702468)
(-0.00164784 -0.00296446 0.00717122)
(-0.00187221 -0.00397328 0.00747112)
(-0.00135416 -0.00353459 0.00765212)
(-0.00121557 -0.00368744 0.00760407)
(-0.00148051 -0.00343975 0.00729367)
(-0.0016294 -0.00339333 0.00730359)
(-0.00145373 -0.004309 0.00730581)
(-0.00106994 -0.00349003 0.00786742)
(-0.00215557 -0.00439766 0.00754926)
(-0.0013731 -0.00367679 0.00752427)
(-0.00140856 -0.00363427 0.00788402)
(-0.00181518 -0.004514 0.00765893)
(-0.00116971 -0.00444376 0.00787864)
(-0.00141791 -0.00370909 0.0072143)
(-0.0015137 -0.00365334 0.00701981)
(-0.00138929 -0.00459272 0.00723059)
(-0.00126056 -0.00337436 0.00749119)
(-0.00187843 -0.00453261 0.00740171)
(-0.0013043 -0.00322845 0.00795502)
(-0.00196386 -0.00441654 0.0076021)
(-0.00124076 -0.00420122 0.00809066)
(-0.00132549 -0.00333902 0.00714961)
(-0.001547 -0.00332458 0.00700829)
(-0.0017384 -0.00432845 0.00740795)
(-0.00126638 -0.00392742 0.00777132)
(-0.00125297 -0.00313923 0.00719209)
(-0.00155147 -0.00316936 0.00712578)
(-0.001705 -0.00396391 0.00740653)
(-0.00121473 -0.0039534 0.00765984)
(-0.00120326 -0.00395678 0.00750318)
(-0.00134534 -0.00324927 0.00724571)
(-0.00164608 -0.00311052 0.00711833)
(-0.0019438 -0.00418977 0.00738684)
(-0.00138494 -0.00351861 0.00754645)
(-0.0014556 -0.00354999 0.00767479)
(-0.00145885 -0.00268494 0.00706516)
(-0.00165653 -0.00268431 0.00708467)
(-0.00189672 -0.0035307 0.00746358)
(-0.00124193 -0.00245879 0.00679444)
(-0.00162368 -0.00252405 0.00698131)
(-0.00186064 -0.00326737 0.00719509)
(-0.00137129 -0.00333064 0.00759534)
(-0.00127334 -0.00293755 0.00725281)
(-0.00152994 -0.00300919 0.00718908)
(-0.00168388 -0.00379535 0.00756362)
(-0.00128738 -0.00349934 0.0077216)
(-0.00131876 -0.00277168 0.00721935)
(-0.0015558 -0.00282097 0.00720054)
(-0.00173768 -0.00358568 0.00759271)
(-0.00120251 -0.00351854 0.00773768)
(-0.00144299 -0.00325621 0.00741162)
(-0.00125637 -0.00249553 0.0070798)
(-0.00154478 -0.00258211 0.00712586)
(-0.00176669 -0.00330662 0.00757274)
(-0.00130431 -0.00305436 0.00731899)
(-0.00121502 -0.00235481 0.00699934)
(-0.00159081 -0.00250437 0.00715507)
(-0.00173551 -0.00312047 0.00741612)
(-0.00129642 -0.00313956 0.0076563)
(-0.00122917 -0.00330739 0.00768736)
(-0.00118772 -0.00372973 0.00767331)
(-0.00168424 -0.0039943 0.00726806)
(-0.00173951 -0.00374693 0.0072244)
(-0.0015963 -0.0049481 0.00671608)
(-0.00148692 -0.00368628 0.00785628)
(-0.00189964 -0.00483431 0.0068548)
(-0.00167808 -0.00367906 0.00795637)
(-0.00231756 -0.00523828 0.00730859)
(-0.00173681 -0.00472248 0.00839594)
(-0.0020319 -0.00483767 0.00881327)
(-0.00225674 -0.00512273 0.0092819)
(-0.00231841 -0.00537308 0.00974523)
(-0.00241781 -0.00553776 0.0101043)
(-0.00150725 -0.0042315 0.00747617)
(-0.00162615 -0.00401874 0.00774947)
(-0.00151654 -0.00523981 0.00757958)
(-0.00162001 -0.00394563 0.00732139)
(-0.00151347 -0.00365226 0.00733514)
(-0.00147435 -0.00491338 0.00703424)
(-0.00143152 -0.00440879 0.00811924)
(-0.00113527 -0.00396892 0.00756415)
(-0.00155224 -0.00371496 0.00731784)
(-0.00175841 -0.00475855 0.00761504)
(-0.00151254 -0.00438466 0.00808484)
(-0.00171926 -0.00392588 0.00718568)
(-0.0017478 -0.00501675 0.00721086)
(-0.00173097 -0.00373577 0.0083429)
(-0.00183857 -0.00499903 0.00728505)
(-0.00141837 -0.0044103 0.0081968)
(-0.00109573 -0.00391145 0.00728628)
(-0.00148663 -0.00372693 0.00724695)
(-0.00131241 -0.00465198 0.0072702)
(-0.00128846 -0.00350189 0.00787954)
(-0.00199219 -0.00475759 0.00763865)
(-0.00108452 -0.00448465 0.00789946)
(-0.00141663 -0.00366491 0.00810252)
(-0.00199372 -0.00491977 0.00769622)
(-0.00147068 -0.00481547 0.00837021)
(-0.00108881 -0.00406557 0.00715529)
(-0.00112988 -0.00390479 0.00738504)
(-0.00116878 -0.00504571 0.00726685)
(-0.00153108 -0.00432365 0.00729633)
(-0.0015616 -0.00523937 0.00756858)
(-0.00120306 -0.00445545 0.00809469)
(-0.00162505 -0.00430585 0.00803594)
(-0.00183076 -0.00558125 0.008007)
(-0.00180115 -0.00458387 0.00843257)
(-0.00191105 -0.00596303 0.0084343)
(-0.00193522 -0.00487284 0.00874225)
(-0.00199903 -0.00629985 0.00871164)
(-0.00207282 -0.00514958 0.00901796)
(-0.00208289 -0.00652021 0.00902167)
(-0.00189116 -0.0038871 0.00861033)
(-0.00198658 -0.00513781 0.00766827)
(-0.00201857 -0.00404997 0.0090505)
(-0.00213027 -0.00535848 0.00814712)
(-0.00207778 -0.00424869 0.00944626)
(-0.00219376 -0.00568082 0.00859152)
(-0.00217054 -0.00439531 0.00981496)
(-0.00223986 -0.00587174 0.00902179)
(-0.00150608 -0.00504907 0.0087917)
(-0.00166992 -0.00540241 0.00909762)
(-0.00148922 -0.0043927 0.00840432)
(-0.00151749 -0.00537565 0.00761701)
(-0.00154564 -0.00457389 0.00831993)
(-0.00159905 -0.00563458 0.00770149)
(-0.00181674 -0.00571278 0.00932141)
(-0.00198215 -0.00588743 0.00949354)
(-0.00167367 -0.00479244 0.00842179)
(-0.00174005 -0.00590298 0.00780234)
(-0.00186948 -0.00503638 0.0085789)
(-0.00191696 -0.00614217 0.00790011)
(-0.00221462 -0.00550935 0.00954807)
(-0.00233349 -0.00478673 0.0096475)
(-0.00213321 -0.00655912 0.009337)
(-0.00227447 -0.00579425 0.0104628)
(-0.0022523 -0.00505943 0.00967596)
(-0.00238331 -0.00665952 0.00949649)
(-0.00233684 -0.00506629 0.00958893)
(-0.00229186 -0.00671377 0.00944539)
(-0.00236152 -0.00505677 0.00945671)
(-0.00233109 -0.00671932 0.00937434)
(-0.00241955 -0.0050651 0.00944207)
(-0.00237704 -0.00668496 0.00932913)
(-0.00219488 -0.00440168 0.00989849)
(-0.00217465 -0.00599937 0.00895844)
(-0.0019729 -0.00437517 0.00983252)
(-0.00198826 -0.00580236 0.00867265)
(-0.00248905 -0.00502318 0.00933726)
(-0.00222447 -0.00653262 0.00918129)
(-0.00255161 -0.00521598 0.00902599)
(-0.00229971 -0.0043535 0.00930368)
(-0.00235058 -0.00624508 0.00909593)
(-0.00217403 -0.00533346 0.00911243)
(-0.00215674 -0.00668871 0.00908779)
(-0.00216749 -0.00536405 0.00900314)
(-0.00224363 -0.00657539 0.008973)
(-0.00250012 -0.00561455 0.00862926)
(-0.00228954 -0.00646365 0.00893091)
(-0.00244427 -0.00512782 0.00940187)
(-0.00232633 -0.00628808 0.0085698)
(-0.00222006 -0.00439129 0.00997662)
(-0.00262338 -0.00636654 0.00962528)
(-0.00211934 -0.00582031 0.0101942)
(-0.00218868 -0.00574364 0.0102055)
(-0.00230889 -0.00575769 0.0101394)
(-0.00215813 -0.00607871 0.00961712)
(-0.00228972 -0.00608464 0.00948677)
(-0.00199911 -0.00510628 0.00857309)
(-0.0021197 -0.00635992 0.00798968)
(-0.00217532 -0.00506319 0.00852099)
(-0.00223603 -0.00630964 0.00796023)
(-0.002195 -0.00560639 0.00799155)
(-0.00222687 -0.00504577 0.00757552)
(-0.00210423 -0.00648584 0.00769036)
(-0.00217316 -0.00610848 0.00934904)
(-0.0022472 -0.00481596 0.00832125)
(-0.00264688 -0.00655183 0.00810725)
(-0.00213899 -0.00564494 0.00807773)
(-0.00245683 -0.00508915 0.00904467)
(-0.00239673 -0.0062339 0.00828848)
(-0.00248321 -0.00499773 0.00891172)
(-0.00251222 -0.00613815 0.00821892)
(-0.00249337 -0.00492298 0.00901215)
(-0.00255089 -0.00609782 0.00821648)
(-0.0026047 -0.00508573 0.00796819)
(-0.00257006 -0.00618112 0.00838349)
(-0.00237225 -0.00585941 0.0100947)
(-0.0024771 -0.00580297 0.00996204)
(-0.0026185 -0.00566988 0.00977547)
(-0.00261503 -0.00568598 0.00955539)
(-0.0022876 -0.00494176 0.00732488)
(-0.00240225 -0.00644592 0.00771347)
(-0.00249501 -0.00493937 0.00728696)
(-0.00239355 -0.0063453 0.00763379)
(-0.00223126 -0.0053154 0.00783775)
(-0.00251517 -0.00523039 0.00781102)
(-0.00298534 -0.00527151 0.00780196)
(-0.00269699 -0.00464818 0.00761046)
(-0.00273463 -0.0061349 0.00780677)
(-0.00303184 -0.00565753 0.00893163)
(-0.00272862 -0.00550222 0.00784446)
(-0.00286503 -0.00454197 0.00810731)
(-0.00251761 -0.00609585 0.00777306)
(-0.00112077 -0.0038442 0.00712752)
(-0.00139588 -0.00373906 0.0070534)
(-0.00120379 -0.0046007 0.00722826)
(-0.0010821 -0.00355024 0.00764678)
(-0.00173345 -0.00475661 0.00749912)
(-0.0011159 -0.00438546 0.0076352)
(-0.00114188 -0.00452962 0.00771279)
(-0.0010345 -0.00478291 0.00800161)
(-0.00147223 -0.00198146 0.00674017)
(-0.00193613 -0.00224163 0.00683748)
(-0.00197919 -0.00294474 0.00737838)
(-0.00155808 -0.00194429 0.00645054)
(-0.0020024 -0.00201713 0.00668926)
(-0.00205276 -0.00279098 0.00723388)
(-0.00186241 -0.00258889 0.00710942)
(-0.00162731 -0.00172529 0.00646662)
(-0.0018481 -0.00186363 0.00636926)
(-0.00226496 -0.00238501 0.00717582)
(-0.00170396 -0.00172531 0.00654631)
(-0.00216315 -0.00193531 0.00653488)
(-0.00235811 -0.00250238 0.00720525)
(-0.0021069 -0.00196669 0.00693577)
(-0.00190068 -0.00262488 0.00694483)
(-0.0017013 -0.00166134 0.00616546)
(-0.00221243 -0.00171397 0.00634396)
(-0.00231291 -0.00245824 0.00684562)
(-0.0020636 -0.00225384 0.0066956)
(-0.00186974 -0.00119652 0.00615088)
(-0.00231951 -0.00144982 0.00619578)
(-0.00246436 -0.00203123 0.00681361)
(-0.00189516 -0.00114538 0.00586054)
(-0.00234424 -0.00127927 0.00603253)
(-0.00245576 -0.00192725 0.00647652)
(-0.00225039 -0.00173582 0.00634413)
(-0.00218492 -0.00166316 0.00692424)
(-0.00195872 -0.00225623 0.00682164)
(-0.00172404 -0.00105664 0.00616166)
(-0.00194497 -0.00147629 0.00602175)
(-0.00225514 -0.00189247 0.00672401)
(-0.00168974 -0.000988791 0.00645688)
(-0.00171188 -0.00149407 0.00645405)
(-0.00224714 -0.00167453 0.00700693)
(-0.00223463 -0.00154292 0.00658376)
(-0.00208836 -0.00213084 0.00650031)
(-0.00167846 -0.00206849 0.00531956)
(-0.00210115 -0.00209624 0.00528759)
(-0.00221351 -0.00273707 0.00573798)
(-0.00179006 -0.00183623 0.00534222)
(-0.00199753 -0.00195259 0.00532314)
(-0.0017676 -0.0024949 0.00552693)
(-0.00177332 -0.00171732 0.00540498)
(-0.00204133 -0.0018551 0.00536657)
(-0.00220171 -0.00259781 0.00589579)
(-0.00191506 -0.0021869 0.00571886)
(-0.00181163 -0.0017386 0.00565044)
(-0.00225553 -0.00258595 0.00569305)
(-0.00187866 -0.00243836 0.00570398)
(-0.00205771 -0.00163119 0.00524453)
(-0.00185598 -0.00167431 0.00527546)
(-0.0018807 -0.0022049 0.00538187)
(-0.00215499 -0.00164397 0.00537261)
(-0.00233449 -0.00247915 0.00580989)
(-0.00161252 -0.00215352 0.00627595)
(-0.00205457 -0.00235938 0.00616092)