/*--------------------------------*- C++ -*----------------------------------*\
| =========                 |                                                 |
| \\      /  F ield         | OpenFOAM: The Open Source CFD Toolbox           |
|  \\    /   O peration     | Version:  5.0                                   |
|   \\  /    A nd           | Web:      www.OpenFOAM.org                      |
|    \\/     M anipulation  |                                                 |
\*---------------------------------------------------------------------------*/
FoamFile
{
    version     2.0;
    format      ascii;
    class       surfaceScalarField;
    location    "60";
    object      phi;
}
// * * * * * * * * * * * * * * * * * * * * * * * * * * * * * * * * * * * * * //

dimensions      [0 3 -1 0 0 0 0];

internalField   nonuniform List<scalar> 
105711
(
2.37175e-11
2.19307e-11
-1.06213e-11
1.99081e-11
2.04751e-11
-3.74945e-12
1.37162e-11
-9.78343e-12
1.60311e-11
-5.66212e-14
5.82695e-12
-3.63789e-12
1.16086e-11
-8.0731e-14
2.30595e-11
-1.98497e-11
2.27224e-11
-2.01031e-11
3.32015e-11
-3.00571e-11
1.92273e-11
6.92217e-13
1.88798e-11
-1.80956e-11
3.29367e-11
-5.15209e-13
1.18981e-11
-1.1043e-11
1.78561e-11
1.7144e-13
3.95712e-12
-4.00177e-12
1.19423e-11
2.7054e-15
1.49e-11
-1.51153e-11
1.85863e-11
-1.44111e-11
2.00785e-11
-2.1863e-11
1.65502e-11
1.39834e-13
1.05265e-11
-1.12601e-11
2.20785e-11
-1.26192e-12
3.22283e-12
-3.84195e-12
1.10836e-11
6.45689e-14
1.09264e-11
-1.21989e-11
1.55231e-11
-1.10248e-11
1.39875e-11
-1.55529e-11
1.27454e-11
-2.48564e-13
3.30446e-12
-4.5745e-12
1.50171e-11
2.44373e-13
1.18723e-11
-1.36e-11
1.73587e-11
-1.23228e-11
1.51759e-11
-1.71432e-11
1.418e-11
-3.34078e-13
3.52265e-12
-4.61642e-12
1.58957e-11
3.77902e-13
1.24199e-11
-1.42559e-11
-1.2631e-11
1.7993e-11
1.48825e-11
-1.69285e-11
1.39593e-11
5.10543e-13
3.45193e-12
-4.25339e-12
1.51785e-11
5.08092e-13
1.14743e-11
-1.30787e-11
1.68755e-11
-1.18171e-11
1.33124e-11
-1.43327e-11
1.24845e-11
1.32888e-14
3.12978e-12
-3.48556e-12
1.32051e-11
4.64281e-13
9.54392e-12
-1.0056e-11
1.27114e-11
-9.06817e-12
6.04905e-12
-5.8511e-12
8.57772e-12
7.70311e-13
1.37477e-11
-1.47555e-11
-1.55404e-11
2.26003e-11
1.39203e-11
-1.37808e-11
1.20862e-11
1.52486e-12
3.1898e-12
-2.5064e-12
1.23841e-11
8.54345e-13
8.1419e-12
-8.39618e-12
-7.66527e-12
1.11106e-11
4.94944e-12
-4.16417e-12
6.32979e-12
1.02824e-12
9.45009e-12
-9.59643e-12
1.56219e-11
-1.05241e-11
5.26147e-12
-4.37232e-12
7.43974e-12
1.12299e-12
9.77023e-12
-1.015e-11
-1.0378e-11
1.60212e-11
5.49525e-12
-4.25586e-12
6.93094e-12
1.60207e-12
1.02106e-11
-1.03329e-11
1.62893e-11
-1.0669e-11
5.55879e-12
-4.04088e-12
6.69069e-12
2.0031e-12
9.46889e-12
-9.65185e-12
1.5706e-11
-9.96382e-12
5.12188e-12
-3.65654e-12
6.40079e-12
1.60312e-12
8.55578e-12
-8.93099e-12
1.40832e-11
-8.58533e-12
4.66169e-12
-2.76807e-12
4.58051e-12
2.08148e-12
2.25003e-12
-5.61639e-12
1.351e-11
-5.48215e-12
1.14383e-11
-1.65211e-11
-1.31449e-11
2.04785e-11
5.46461e-12
-4.36427e-12
7.90813e-12
2.42976e-12
8.25765e-12
-8.99331e-12
1.45409e-11
-8.34085e-12
4.42135e-12
-2.4423e-12
3.98453e-12
2.29399e-12
2.00463e-12
-5.06122e-12
1.26124e-11
-5.13472e-12
9.60486e-12
-1.40068e-11
-1.12044e-11
1.7612e-11
4.76538e-12
-2.94829e-12
5.43882e-12
2.34882e-12
1.7001e-12
-5.356e-12
1.42426e-11
-5.82155e-12
5.25889e-12
-1.35549e-11
-9.30685e-12
1.93021e-11
1.27962e-11
-1.54729e-11
-1.89609e-11
2.68946e-11
6.51257e-12
-3.57198e-12
3.74665e-12
6.10744e-12
2.06976e-12
-6.0531e-12
1.70501e-11
-6.5559e-12
1.88025e-12
-1.18609e-11
-7.80518e-12
1.98547e-11
6.51492e-12
-1.72801e-11
-1.36354e-11
2.62799e-11
1.41327e-11
-1.68907e-11
-2.23898e-11
3.16621e-11
6.81047e-12
-3.7457e-12
6.23823e-12
4.82963e-12
2.12529e-12
-6.2007e-12
1.71917e-11
-6.30552e-12
1.98564e-12
-1.14186e-11
1.87837e-11
-7.22444e-12
2.70571e-12
-1.38153e-11
2.21971e-11
-9.10297e-12
3.17627e-12
-1.60539e-11
2.5938e-11
-1.03556e-11
3.50627e-12
-1.76613e-11
2.94542e-11
-1.21241e-11
3.53562e-12
-1.86191e-11
3.13097e-11
-1.27202e-11
3.5806e-12
-1.89406e-11
3.13554e-11
-1.24608e-11
3.31999e-12
-1.81943e-11
3.01529e-11
-1.16988e-11
3.03383e-12
-1.62679e-11
2.79035e-11
-1.13517e-11
2.7329e-12
-1.48406e-11
2.52515e-11
-1.01121e-11
2.28245e-12
-1.30819e-11
2.16566e-11
-8.12573e-12
1.31478e-12
-1.04572e-11
1.79354e-11
-6.51135e-12
-4.72094e-12
-5.94584e-12
1.94894e-11
-7.50804e-12
-6.27665e-12
1.15323e-11
-8.08849e-12
-1.88797e-12
-2.347e-12
-1.74226e-11
7.54688e-12
-2.84115e-12
-2.1217e-11
1.12536e-11
-3.2925e-12
-2.54931e-11
1.28613e-11
-3.81604e-12
-2.90014e-11
1.46828e-11
-3.97504e-12
-3.24561e-11
1.63441e-11
-3.92227e-12
-3.6386e-11
1.81391e-11
-3.89809e-12
-3.88638e-11
1.98981e-11
-3.85647e-12
-3.85472e-11
1.98878e-11
-3.52719e-12
-3.62544e-11
1.82624e-11
-2.95392e-12
-3.29569e-11
1.63294e-11
-2.01924e-12
-2.90388e-11
1.42881e-11
-1.19725e-12
-2.40652e-11
1.18252e-11
-1.88825e-11
7.73989e-12
1.76123e-12
-1.12792e-11
-1.94576e-12
-7.41905e-12
2.23266e-12
-1.43955e-11
-1.01406e-11
5.59968e-12
-1.86821e-11
-1.37246e-11
5.81114e-12
-1.54614e-11
-1.77081e-11
5.38792e-12
-1.80879e-11
-1.77435e-11
4.76228e-12
-1.924e-11
-1.86815e-11
3.52483e-12
-1.87597e-11
-1.88671e-11
2.60282e-12
-1.67295e-11
-1.87329e-11
4.1441e-12
-1.91045e-11
-1.48947e-11
3.45578e-12
-1.61727e-11
-1.21421e-11
2.79594e-12
-1.4298e-11
-1.05371e-11
2.24699e-12
-1.24051e-11
-8.26402e-12
1.39925e-12
-1.05456e-11
-6.02909e-12
-4.35344e-12
-6.00682e-12
1.89598e-11
-7.2006e-12
-5.77624e-12
1.08442e-11
-7.54338e-12
-1.87718e-12
-2.08055e-12
-1.66941e-11
6.99152e-12
-2.66432e-12
-1.99097e-11
9.94769e-12
-3.33967e-12
-2.3732e-11
1.20013e-11
-3.96307e-12
-2.79574e-11
1.42805e-11
-5.11582e-12
-3.1584e-11
1.65615e-11
-1.21663e-11
-3.36322e-11
2.15767e-11
-6.35735e-12
3.63739e-12
-6.85572e-12
-2.59031e-12
5.69988e-12
-1.64141e-11
-2.27959e-12
6.6372e-12
-9.72681e-13
-6.41951e-12
-1.60642e-12
-9.34093e-12
-8.78462e-12
-1.782e-12
-9.73011e-12
-9.33319e-12
-2.02898e-12
-8.78391e-12
-9.05727e-12
-5.72696e-12
-5.24886e-12
-6.51416e-12
6.31346e-12
-1.28477e-11
-3.09211e-12
3.89992e-12
-1.7624e-12
-2.99866e-11
1.9379e-11
-1.72161e-12
-2.76997e-11
1.32634e-11
-1.0285e-12
-2.2783e-11
1.08103e-11
5.99311e-12
3.45022e-12
-1.76002e-11
7.12716e-12
-6.48271e-12
-6.3617e-12
6.09139e-12
-1.33477e-11
4.22278e-12
-1.56032e-12
-2.88095e-11
1.91804e-11
-1.04403e-12
-2.36398e-11
1.12605e-11
-1.81217e-11
7.45112e-12
1.78016e-12
-1.06489e-11
-1.77786e-12
-7.47695e-12
6.13755e-12
-1.60796e-11
-1.19188e-11
-1.59402e-11
-2.00806e-11
1.9133e-12
-5.4788e-12
-6.10561e-12
-6.26943e-12
1.65199e-12
-1.01338e-11
-7.20507e-12
2.20407e-12
-1.33317e-11
-1.00023e-11
6.38864e-12
-1.8186e-11
-1.36963e-11
-1.63685e-11
-2.00762e-11
1.9465e-12
-5.47678e-12
-6.35931e-12
-6.47868e-12
1.65237e-12
-9.67515e-12
1.61475e-11
-6.17622e-12
2.04378e-12
-1.0934e-11
1.82966e-11
-7.75224e-12
2.21926e-12
-1.14834e-11
1.95904e-11
-8.28051e-12
2.26432e-12
-1.11511e-11
1.85546e-11
-7.44612e-12
1.75365e-12
-9.92066e-12
-5.98136e-12
-4.27321e-12
-5.87756e-12
1.90685e-11
-7.16319e-12
-6.36976e-12
1.19038e-11
-7.31188e-12
-2.49421e-12
-2.3983e-12
-1.64048e-11
6.55706e-12
-2.48922e-12
-1.85744e-11
8.74624e-12
-2.36942e-12
-2.08938e-11
9.62551e-12
-2.24437e-12
-2.15838e-11
9.97821e-12
-1.98623e-12
-2.02064e-11
9.0167e-12
-1.60101e-12
-1.77319e-11
7.67363e-12
2.82831e-12
-1.5568e-11
5.66244e-12
6.05286e-12
-1.35206e-11
3.93688e-12
-1.78441e-12
-2.93227e-11
1.89748e-11
-1.84174e-12
-2.6214e-11
1.294e-11
-1.27853e-12
-2.04814e-11
9.78414e-12
3.06017e-12
-1.57235e-11
5.90583e-12
5.76744e-12
-1.26026e-11
3.78949e-12
-1.34053e-12
-2.63748e-11
1.74021e-11
-1.13888e-12
-2.02196e-11
9.36805e-12
5.43518e-12
2.82501e-12
-1.48141e-11
5.41422e-12
-5.72217e-12
-6.09409e-12
5.28362e-12
-1.12389e-11
3.05748e-12
-5.47139e-13
-2.14627e-11
1.37374e-11
-1.48321e-11
5.98042e-12
2.56411e-12
-6.24159e-12
-5.17722e-12
-5.97815e-12
-1.56292e-11
-1.45104e-11
-1.01543e-12
-2.51081e-11
-6.82013e-12
1.73117e-11
3.15414e-12
-1.76465e-11
7.23428e-12
6.72172e-12
-1.17655e-11
3.01981e-12
-7.35807e-13
-2.11447e-11
1.45953e-11
-1.34895e-11
5.24992e-12
2.60125e-12
-6.1055e-12
-4.84309e-12
-5.14224e-12
-1.60333e-11
-1.4276e-11
-1.13675e-12
-2.48122e-11
-7.29183e-12
1.72063e-11
2.94863e-12
-1.61609e-11
5.96962e-12
5.88142e-12
-1.02951e-11
2.51934e-12
-1.8933e-11
1.14563e-11
-7.20505e-12
-1.11951e-11
-1.08279e-11
8.69669e-12
-1.39926e-11
3.28e-12
-5.18918e-12
-8.67394e-13
-2.53933e-11
1.84356e-11
-1.53507e-11
6.09924e-12
4.76419e-12
-7.54993e-12
-5.06907e-12
-7.49665e-12
-1.48104e-11
-1.98126e-11
2.5123e-12
-5.6351e-12
-4.89091e-12
-6.79697e-12
1.1808e-11
-1.69837e-11
2.2058e-11
-1.43689e-11
5.48679e-12
-4.28035e-12
7.94444e-12
2.65695e-12
5.10256e-12
-8.39962e-12
-7.37691e-12
1.36215e-11
-1.43329e-11
-1.89986e-11
6.45174e-12
-3.74942e-12
3.62606e-12
3.02952e-12
-7.30007e-12
-6.92517e-12
1.24087e-11
-1.75758e-11
-1.69143e-11
5.65125e-12
-3.3518e-12
3.28872e-12
2.18503e-12
-6.28442e-12
-5.06356e-12
3.09941e-12
-1.19337e-11
-9.20113e-12
-1.87788e-11
-1.70998e-11
-2.1265e-12
-3.02679e-11
-7.65465e-12
2.1269e-11
-1.36089e-12
-2.3965e-11
1.12645e-11
-1.7388e-11
6.39017e-12
2.0511e-12
-6.88465e-12
-6.16421e-12
-6.39078e-12
6.16486e-12
-1.51676e-11
-1.29102e-11
1.39695e-11
-1.63258e-11
-2.17457e-11
6.08761e-12
-3.7135e-12
3.94004e-12
2.10909e-12
-6.32104e-12
-5.42492e-12
2.61027e-12
-1.19582e-11
-9.02436e-12
3.62059e-12
-1.52539e-11
-1.19697e-11
-2.06073e-11
-1.86147e-11
-3.0169e-12
-3.35503e-11
-7.36153e-12
2.33232e-11
-2.27376e-12
-2.98693e-11
1.38734e-11
-1.05541e-12
-2.39407e-11
1.07639e-11
-1.86962e-11
7.60522e-12
1.7516e-12
-1.07094e-11
-1.86744e-12
-7.87183e-12
2.51747e-12
-1.44684e-11
-1.02367e-11
7.68855e-12
-1.95604e-11
-1.5477e-11
1.45887e-11
-1.71683e-11
-2.32773e-11
6.4213e-12
-3.20167e-12
4.00951e-12
2.14195e-12
-6.25645e-12
-5.03138e-12
2.18656e-12
-1.03268e-11
-7.44758e-12
2.34816e-12
-1.13126e-11
-9.05229e-12
2.45503e-12
-1.20246e-11
-9.66305e-12
2.35591e-12
-1.19218e-11
-8.87001e-12
2.19441e-12
-1.07927e-11
-7.61613e-12
1.62494e-12
-9.32831e-12
-6.50519e-12
-4.0858e-12
-5.46869e-12
1.84099e-11
-7.22979e-12
-5.93121e-12
-6.79996e-12
1.11978e-11
-2.55212e-12
-2.35083e-12
-1.58921e-11
6.84395e-12
-2.35389e-12
-1.90899e-11
9.76691e-12
-2.4253e-12
-2.09628e-11
1.02454e-11
-2.4987e-12
-2.29772e-11
1.11319e-11
-2.333e-12
-2.37923e-11
1.16048e-11
-2.06695e-12
-2.20536e-11
1.04782e-11
-1.40099e-12
-2.02851e-11
9.29492e-12
-1.73665e-11
6.50887e-12
1.94938e-12
-1.02502e-11
-2.14167e-12
-6.92138e-12
2.28544e-12
-1.19477e-11
-8.66911e-12
2.58552e-12
-1.28945e-11
-9.45349e-12
2.58375e-12
-1.33576e-11
-1.04263e-11
2.43891e-12
-1.26894e-11
-1.01384e-11
2.33118e-12
-1.21887e-11
-8.66191e-12
2.14899e-12
-1.10899e-11
-7.81378e-12
1.52247e-12
-9.2378e-12
-6.02639e-12
-3.81043e-12
-5.31751e-12
1.76724e-11
-7.02028e-12
-5.51138e-12
1.10177e-11
-6.72117e-12
-2.59377e-12
-1.8338e-12
-1.47984e-11
5.80516e-12
-2.24202e-12
-1.79937e-11
9.16549e-12
-2.47859e-12
-2.14663e-11
1.06169e-11
-2.49082e-12
-2.32754e-11
1.11033e-11
-2.54042e-12
-2.4381e-11
1.17455e-11
-2.64077e-12
-2.53609e-11
1.21094e-11
-2.37004e-12
-2.41874e-11
1.10277e-11
-2.24779e-12
-2.21393e-11
1.00734e-11
-1.67904e-12
-1.91081e-11
8.29237e-12
5.5559e-12
2.96278e-12
-1.63059e-11
6.11035e-12
-7.02572e-12
-6.72616e-12
6.24985e-12
-1.46814e-11
4.37044e-12
-1.84721e-12
-3.13113e-11
1.98498e-11
-2.04257e-12
-2.74643e-11
1.31922e-11
-1.21875e-12
-2.13213e-11
9.78731e-12
5.31679e-12
2.87198e-12
-1.52295e-11
5.82206e-12
-5.85913e-12
-7.01738e-12
5.78567e-12
-1.17055e-11
2.93265e-12
-3.44309e-13
-2.44146e-11
1.53771e-11
3.78499e-12
-1.82051e-11
7.19023e-12
7.76965e-12
-1.32764e-11
3.12627e-12
-1.02335e-12
-2.80825e-11
1.92972e-11
-2.02567e-11
8.18174e-12
5.33661e-12
-1.29187e-11
-1.98389e-12
-1.06925e-11
-1.50912e-11
-2.09321e-11
1.85967e-12
-5.14217e-12
-5.48703e-12
-6.32231e-12
2.28798e-12
-1.09429e-11
-7.69071e-12
-1.75435e-11
-1.62881e-11
-1.60247e-12
-2.7458e-11
-7.38689e-12
1.8903e-11
-1.26195e-12
-2.07413e-11
9.45736e-12
2.53585e-12
-1.42342e-11
5.29406e-12
4.74025e-12
-1.06033e-11
2.9116e-12
-7.72478e-13
-1.94856e-11
1.20777e-11
5.21686e-12
2.61107e-12
-1.38967e-11
5.29515e-12
-5.02525e-12
-6.07546e-12
4.80393e-12
-9.86449e-12
2.64565e-12
-1.80893e-11
1.02127e-11
-7.21987e-12
-1.06478e-11
-1.00861e-11
8.24233e-12
-1.42014e-11
3.17229e-12
-4.43223e-12
-1.05394e-12
-2.55888e-11
1.79016e-11
2.61519e-12
-1.54759e-11
6.17165e-12
4.36032e-12
-9.01902e-12
2.38304e-12
3.4786e-12
-1.50277e-11
8.35872e-12
6.39442e-12
-9.74949e-12
1.76463e-12
-1.6408e-11
1.02142e-11
-5.82335e-12
-1.034e-11
-9.9939e-12
7.13883e-12
-1.08956e-11
2.14584e-12
-4.21175e-12
-1.83539e-11
1.18005e-11
-6.3563e-12
-1.19317e-11
-1.0961e-11
7.92879e-12
-1.13754e-11
1.65947e-12
-4.56801e-12
-1.88147e-11
1.21562e-11
-6.27078e-12
-1.2518e-11
-1.14001e-11
8.38464e-12
-1.14135e-11
1.85903e-12
-5.09973e-12
-1.85705e-11
1.24342e-11
-5.91239e-12
-1.24029e-11
-1.16674e-11
8.31586e-12
-1.04023e-11
1.24101e-12
-5.06559e-12
-1.73866e-11
1.19427e-11
-5.29154e-12
-1.1804e-11
-1.0692e-11
7.22818e-12
-8.58383e-12
9.26783e-13
-4.86136e-12
-1.21666e-11
8.49288e-12
-3.17181e-12
-8.32973e-12
-9.24772e-12
-1.48049e-11
1.02415e-12
-3.17036e-12
1.35564e-11
-1.59336e-11
-1.39158e-11
1.4902e-12
-2.50471e-11
1.79982e-11
-8.90456e-12
-1.22555e-11
-1.98195e-11
1.04261e-11
-9.09485e-12
-1.01852e-11
-4.94664e-14
-1.4128e-11
1.10132e-11
-2.81765e-12
-9.1896e-12
-1.12148e-11
-1.39575e-11
6.86527e-13
-3.87856e-12
1.41005e-11
-1.25031e-11
-1.60999e-11
5.47568e-13
-1.80054e-11
1.47754e-11
-3.4983e-12
-1.26679e-11
-1.43407e-11
-1.59671e-11
3.64156e-13
-4.82203e-12
1.57534e-11
-1.28335e-11
-1.83876e-11
-4.95774e-13
-1.90569e-11
1.59403e-11
-3.3481e-12
-1.35176e-11
-1.50223e-11
-1.533e-11
6.5876e-14
-5.22461e-12
1.5311e-11
-1.20148e-11
-1.76089e-11
-1.01317e-12
-1.82488e-11
1.53876e-11
-3.19578e-12
-1.28693e-11
-1.41962e-11
-1.38514e-11
-2.53117e-13
-4.64191e-12
1.35398e-11
-1.03913e-11
-1.55405e-11
-1.45557e-12
-1.53145e-11
1.28153e-11
-2.78141e-12
-1.08853e-11
-1.20371e-11
-1.00036e-11
-6.97756e-14
-3.96641e-12
-1.9951e-11
-1.12532e-11
-6.59371e-13
1.61023e-11
-1.43985e-11
-2.12689e-11
-3.82613e-13
-1.71303e-11
1.41169e-11
-3.58769e-12
-1.32803e-11
-1.46591e-11
-1.10518e-11
2.48077e-13
-3.82587e-12
-1.80993e-11
-1.06592e-11
-3.86518e-13
-3.11958e-11
-1.69407e-11
-1.72449e-14
1.77476e-11
-2.28875e-11
-2.75297e-11
1.47616e-12
-2.09164e-11
1.51763e-11
-5.6706e-12
-1.9141e-11
-1.89914e-11
-8.81804e-13
-3.13174e-12
3.81011e-11
3.87152e-11
-5.28394e-12
3.21774e-11
3.08419e-11
-4.44442e-12
2.28799e-11
2.60145e-11
-6.87096e-13
1.57064e-11
1.93172e-11
-5.34775e-13
5.78512e-12
1.40743e-11
6.03188e-14
-4.21253e-12
2.25202e-11
2.5173e-11
-2.10815e-11
-2.08249e-11
3.27878e-11
2.47201e-11
-2.04648e-12
2.32393e-11
1.91331e-11
8.27693e-12
1.26713e-11
2.42442e-11
-1.72852e-12
4.22103e-12
1.29432e-11
-1.36433e-13
-4.35337e-12
1.54579e-11
2.03256e-11
-1.59551e-11
-1.56042e-11
1.99021e-11
1.93148e-11
-1.67363e-12
1.34027e-11
1.24086e-11
5.18007e-12
3.10821e-12
1.36184e-11
2.19937e-13
-3.53992e-12
1.16472e-11
-1.19681e-11
-1.24344e-11
1.58674e-11
1.43846e-11
1.2975e-11
-6.8799e-13
3.53584e-12
1.48234e-11
1.97407e-13
-4.16749e-12
1.22909e-11
1.71793e-11
-1.26662e-11
-1.32642e-11
1.48983e-11
1.34183e-11
-1.22287e-13
3.62883e-12
1.51911e-11
3.20138e-13
-4.23779e-12
1.21669e-11
1.73851e-11
-1.27467e-11
-1.3173e-11
1.43017e-11
1.29606e-11
8.7825e-14
3.41133e-12
1.42185e-11
4.7451e-13
-3.79972e-12
1.15303e-11
1.61512e-11
-1.19839e-11
-1.22839e-11
1.26437e-11
1.14843e-11
6.11228e-13
2.91025e-12
1.19388e-11
6.51051e-13
-2.85504e-12
8.89951e-12
1.15657e-11
-8.43022e-12
-9.12343e-12
5.63485e-12
7.63266e-12
8.74847e-13
-5.24082e-12
1.28686e-11
2.05787e-11
-1.43891e-11
-1.34203e-11
1.23487e-11
1.09411e-11
1.96564e-12
3.4974e-12
9.34607e-12
1.52221e-12
-2.01641e-12
8.28171e-12
1.03197e-11
-7.62301e-12
-7.48037e-12
2.74493e-12
1.08033e-11
-1.3462e-12
-3.91934e-12
7.61532e-12
-6.99921e-12
-8.29015e-12
1.04204e-11
4.49811e-12
5.5581e-12
1.31756e-12
-3.75726e-12
8.26866e-12
1.33134e-11
-8.42644e-12
-8.65596e-12
4.49611e-12
5.98698e-12
1.38163e-12
-3.59498e-12
8.52098e-12
1.31562e-11
-8.34339e-12
-8.83638e-12
5.33164e-12
4.61475e-12
2.00746e-12
-3.43322e-12
8.2569e-12
1.45522e-11
-8.87176e-12
-8.60674e-12
2.54637e-12
9.90562e-12
-6.50669e-13
-3.54434e-12
3.67232e-12
1.04156e-11
-4.97729e-12
-6.56416e-12
1.17565e-11
-1.57755e-11
2.11999e-11
5.95056e-12
8.50931e-12
2.39944e-12
-5.10249e-12
9.32828e-12
1.60924e-11
-9.53879e-12
-9.93173e-12
5.05259e-12
5.15736e-12
2.40938e-12
-3.29151e-12
3.88023e-12
1.50422e-11
-6.9226e-12
-6.948e-12
1.10484e-11
2.11924e-11
-1.57487e-11
5.35439e-12
7.72095e-12
2.41738e-12
-4.44405e-12
4.68977e-12
1.5908e-11
-7.19438e-12
-8.04895e-12
1.27379e-11
2.43731e-11
-1.81784e-11
5.79016e-12
7.34615e-12
-3.85364e-12
3.45485e-12
2.12791e-12
1.61993e-11
-6.71184e-12
-5.82584e-12
6.36699e-12
2.31588e-11
-1.15418e-11
-1.58575e-11
1.45246e-11
3.05134e-11
-2.1625e-11
6.23401e-12
7.97401e-12
-3.95462e-12
4.26989e-12
2.17339e-12
1.62483e-11
-6.5962e-12
-5.59334e-12
2.52358e-12
2.1637e-11
-1.2442e-11
-9.54482e-12
7.17426e-12
2.77445e-11
-1.4319e-11
-1.80761e-11
1.45483e-11
3.25195e-11
-2.27016e-11
6.88654e-12
-3.47219e-12
5.09779e-12
6.03574e-12
2.09173e-12
-6.13355e-12
-5.54273e-12
1.64699e-11
2.08558e-12
-1.08544e-11
1.72891e-11
-6.42972e-12
2.71256e-12
-1.33591e-11
2.13923e-11
-8.66161e-12
2.9317e-12
-1.50687e-11
2.41321e-11
-9.28325e-12
3.06841e-12
-1.60568e-11
2.65e-11
-1.05802e-11
2.96808e-12
-1.63451e-11
2.71689e-11
-1.0724e-11
2.74172e-12
-1.55456e-11
2.55544e-11
-9.78224e-12
2.54469e-12
-1.4216e-11
2.3653e-11
-9.2407e-12
2.2323e-12
-1.27624e-11
2.12865e-11
-8.21274e-12
1.32935e-12
-1.08272e-11
1.77757e-11
-6.04673e-12
-4.76968e-12
-6.18242e-12
1.89367e-11
-6.65674e-12
-6.33017e-12
1.13417e-11
-8.46088e-12
-1.32157e-12
-2.3882e-12
7.80948e-12
-2.76716e-12
1.12067e-11
-3.02553e-12
1.27459e-11
-3.20805e-12
1.38676e-11
-3.34351e-12
1.47423e-11
-3.26467e-12
1.49306e-11
-3.14738e-12
1.51347e-11
-2.77275e-12
1.40097e-11
-2.19596e-12
1.20004e-11
-1.415e-12
1.05599e-11
7.76149e-12
5.32845e-11
7.60319e-12
-5.35745e-11
2.03052e-11
-1.56094e-11
-1.15213e-10
1.31875e-10
3.19256e-11
1.34173e-11
3.02784e-11
-6.92262e-12
6.22364e-12
-3.07021e-12
4.46509e-12
5.79798e-12
2.64277e-12
-5.61541e-12
-6.53865e-12
1.57337e-11
1.73634e-12
-1.02589e-11
2.01129e-11
-8.94779e-12
1.94395e-12
-1.21397e-11
1.90749e-11
-7.1431e-12
2.3547e-12
-1.31292e-11
2.10801e-11
-8.36144e-12
2.47203e-12
-1.33489e-11
2.1899e-11
-8.66633e-12
2.35318e-12
-1.29626e-11
2.11277e-11
-8.04439e-12
2.20935e-12
-1.1918e-11
1.94031e-11
-7.33989e-12
1.43902e-12
-1.04116e-11
1.6577e-11
-5.39472e-12
-4.69242e-12
-6.05733e-12
1.88747e-11
-6.6864e-12
-6.26568e-12
1.18791e-11
-8.26301e-12
-2.04373e-12
-2.48684e-12
7.93851e-12
-2.61601e-12
1.10036e-11
-2.69956e-12
1.18192e-11
-2.81116e-12
1.27044e-11
-2.68457e-12
1.3694e-11
-2.43537e-12
1.31215e-11
-2.12732e-12
1.1683e-11
-1.5158e-12
1.05214e-11
7.08566e-12
4.59113e-11
-4.97481e-11
8.8469e-12
1.822e-11
1.22159e-10
-1.05688e-10
-1.36402e-11
2.48614e-11
7.41302e-12
3.24741e-11
-5.93395e-12
1.40989e-11
3.47765e-11
-2.13494e-11
6.20615e-12
-3.75367e-12
4.76675e-12
6.87938e-12
2.20999e-12
-5.6847e-12
-6.5638e-12
1.62442e-11
1.85461e-12
-9.78171e-12
1.90524e-11
-8.91416e-12
1.84492e-12
-1.07308e-11
2.0161e-11
-9.41911e-12
1.5843e-12
-1.06203e-11
2.00983e-11
-9.21508e-12
9.76162e-13
-9.42302e-12
1.87123e-11
-8.67903e-12
-3.57632e-12
-5.5566e-12
1.62072e-11
-6.09719e-12
-6.1026e-12
1.16179e-11
-6.97097e-12
-2.1197e-12
-2.29368e-12
7.21243e-12
-2.16379e-12
9.85211e-12
-2.26517e-12
1.0611e-11
-1.95884e-12
1.08632e-11
-1.27558e-12
1.06159e-11
8.3599e-12
4.71065e-11
-4.80782e-11
7.53504e-12
1.6737e-11
-1.362e-11
-1.01874e-10
1.23747e-10
2.212e-11
5.91286e-12
3.28454e-11
-5.77758e-12
5.3564e-12
3.49376e-11
-1.53263e-11
5.13081e-12
3.62053e-11
-1.58156e-11
4.4844e-12
3.61405e-11
-1.53918e-11
3.36762e-12
3.46129e-11
-1.47804e-11
2.46378e-12
3.1789e-11
-1.46761e-11
3.72212e-12
-1.77247e-11
2.76525e-11
-1.11848e-11
2.91634e-12
-1.44251e-11
2.34099e-11
-8.17985e-12
1.9354e-12
-1.17241e-11
1.85128e-11
-5.80961e-12
-3.92824e-12
-6.28768e-12
1.8385e-11
-6.23553e-12
-6.45669e-12
1.08533e-11
-6.51628e-12
-1.80992e-12
-3.15311e-12
-1.81148e-11
8.52184e-12
-3.65553e-12
-2.42464e-11
1.3023e-11
-4.70276e-12
-2.87875e-11
1.54088e-11
-3.167e-11
2.08599e-11
9.359e-13
-2.07028e-11
3.19232e-12
-1.9011e-11
-1.20353e-11
2.60054e-12
-1.45366e-11
-9.1206e-12
1.53256e-12
-1.09759e-11
-6.07348e-12
-3.82887e-12
-5.97809e-12
1.7522e-11
-6.18427e-12
-5.9043e-12
1.01704e-11
-6.48049e-12
-1.61605e-12
-2.16737e-12
-1.69231e-11
7.20604e-12
-2.91407e-12
-2.21278e-11
1.18953e-11
-4.04338e-12
-2.88464e-11
1.54356e-11
-3.36715e-11
2.24939e-11
1.15418e-13
-2.31169e-11
2.6802e-12
-1.87202e-11
-1.26929e-11
1.62357e-12
-1.35611e-11
-7.51165e-12
-3.42151e-12
-7.02973e-12
-4.85115e-12
-7.4724e-12
-3.56377e-12
-7.51417e-12
1.51254e-11
-3.43609e-12
-2.03529e-11
9.28387e-12
-3.95275e-12
-2.78638e-11
1.4817e-11
-3.32761e-11
2.1942e-11
3.62977e-13
-2.26135e-11
2.8784e-12
-1.81063e-11
-1.22764e-11
1.86503e-12
-1.27419e-11
-6.60102e-12
-4.10997e-12
-6.5587e-12
1.8966e-11
-6.43416e-12
-6.74541e-12
1.11787e-11
-6.54127e-12
-2.00353e-12
-3.29298e-12
-1.89271e-11
8.91399e-12
-4.11436e-12
-2.65256e-11
1.46021e-11
-3.25796e-11
2.18884e-11
4.66369e-13
-2.21763e-11
2.94772e-12
-1.67748e-11
-1.22333e-11
1.73091e-12
-1.13884e-11
-6.32285e-12
-3.42267e-12
-5.50314e-12
1.70536e-11
-6.39784e-12
-5.55163e-12
9.81419e-12
-5.72321e-12
-1.96208e-12
-2.41808e-12
-1.57641e-11
7.12662e-12
-3.72597e-12
-2.16656e-11
1.15845e-11
-2.79673e-11
1.83094e-11
2.09604e-12
-2.00687e-11
-1.75368e-11
1.56352e-12
-1.25004e-11
-8.63119e-12
-2.79421e-12
-6.34642e-12
-5.06001e-12
-6.72326e-12
1.33899e-11
-6.1148e-12
-3.34616e-12
-2.77654e-12
-1.8176e-11
7.88306e-12
-3.62849e-12
-2.45834e-11
1.29366e-11
-1.44123e-11
-3.13427e-11
2.20584e-11
-6.62069e-12
3.25096e-12
-6.891e-12
-4.15075e-12
6.23896e-12
-1.70315e-11
-3.10698e-12
7.27931e-12
-1.77552e-12
-5.42827e-12
-2.65793e-12
-1.12169e-11
-7.80858e-12
-3.36306e-12
-1.37816e-11
-9.24458e-12
-4.07147e-12
-1.58946e-11
-1.1354e-11
-1.7183e-12
-1.87146e-11
-1.52213e-11
-2.31363e-11
1.35458e-10
-1.12513e-10
2.22121e-11
-1.17147e-11
-5.6578e-11
2.12308e-10
-1.85697e-10
4.30777e-11
1.10073e-10
-4.42978e-11
3.44246e-10
-3.0161e-10
6.50354e-11
-6.79811e-11
1.72631e-10
5.62531e-10
-5.01385e-10
1.05484e-10
2.71047e-10
-9.34101e-11
5.9942e-10
-4.27636e-10
3.78555e-10
1.16824e-10
-1.04604e-10
9.55069e-10
-1.19229e-10
-8.75043e-10
1.68734e-10
4.69906e-10
4.09716e-09
-6.96851e-10
-3.18576e-09
6.75729e-10
7.56578e-10
7.14739e-10
-5.49388e-10
-1.01698e-09
-4.99142e-10
3.47302e-10
3.11894e-10
5.31524e-09
-8.15387e-10
-3.93988e-09
8.02811e-10
2.73448e-09
6.24024e-09
-4.3097e-09
-1.01237e-09
1.00825e-09
3.389e-09
7.0352e-09
-1.15974e-09
1.13274e-09
-4.50047e-09
3.7325e-09
7.73025e-09
-1.31096e-09
-4.57097e-09
1.26244e-09
3.92452e-09
8.30427e-09
-1.46418e-09
-4.49736e-09
1.38825e-09
3.99923e-09
-4.29086e-09
-1.60688e-09
3.90438e-09
1.49119e-09
-1.08984e-11
1.62161e-12
1.85197e-12
-1.09151e-11
1.70283e-12
-3.32162e-12
1.6342e-12
-1.13663e-11
1.70203e-12
-3.31033e-12
2.05827e-12
-1.16241e-11
1.34954e-12
-3.46897e-12
2.37693e-12
-1.25446e-11
1.81853e-12
-4.00983e-12
3.1116e-12
-1.34161e-11
2.30797e-12
-4.74157e-12
3.3045e-12
-1.52727e-11
3.13269e-12
-5.89935e-12
4.62239e-12
-1.73743e-11
3.98993e-12
-6.86664e-12
4.97742e-12
-1.97045e-11
3.5624e-12
-7.69891e-12
6.46495e-12
-2.1938e-11
4.0415e-12
-8.7004e-12
6.89025e-12
-2.40308e-11
5.0895e-12
-1.19594e-11
8.96033e-12
-2.57036e-11
5.99419e-12
-1.41315e-11
9.80857e-12
-2.79551e-11
6.01927e-12
-1.41856e-11
1.04168e-11
-2.40668e-11
2.64307e-12
-1.32184e-11
6.68538e-12
-8.13444e-12
2.64751e-11
-2.73701e-11
-1.50372e-11
-1.13503e-11
7.27277e-12
-1.82047e-12
-2.23709e-12
-1.37336e-11
7.22663e-12
-3.73935e-12
-1.1053e-12
-1.57105e-11
8.25221e-12
-4.67912e-12
-1.59764e-12
-1.71127e-11
9.83812e-12
-5.97149e-12
-2.46587e-12
-2.23641e-11
1.73633e-11
-7.62344e-12
-4.48978e-12
-2.82544e-11
6.6799e-12
2.59336e-12
-3.38411e-12
-3.5135e-11
1.24062e-11
3.85744e-12
-9.38482e-12
-4.10979e-11
1.58632e-11
9.57042e-13
-1.08606e-11
-2.94221e-11
1.55106e-11
-8.43988e-12
-1.87486e-11
-8.75381e-12
2.64094e-11
-2.95751e-11
-1.75029e-11
-1.25681e-11
8.62064e-12
-1.79083e-12
-3.01623e-12
-1.60538e-11
1.01141e-11
-5.83657e-12
-7.92171e-13
-1.79824e-11
1.31793e-11
-8.10306e-12
-3.14917e-12
-2.73159e-11
2.33138e-11
-7.05342e-12
-6.92943e-12
-2.97983e-11
1.25352e-11
-1.11771e-11
1.12211e-12
-3.68515e-11
1.84412e-11
-1.18576e-11
4.66581e-13
-4.09622e-11
2.12481e-11
-1.44029e-11
-2.73894e-12
-4.61401e-11
2.37878e-11
-1.64258e-11
-2.18937e-12
-5.00889e-11
2.67862e-11
-1.82309e-11
-4.61209e-12
-5.40115e-11
2.96756e-11
-2.33277e-11
-2.42821e-12
-5.53673e-11
3.29788e-11
-2.65485e-11
-5.07624e-12
-5.7213e-11
3.48476e-11
-2.82608e-11
-4.74116e-12
-5.55413e-11
3.56142e-11
-3.01056e-11
-7.18157e-12
-5.48865e-11
3.57197e-11
-3.016e-11
-6.21524e-12
-5.16396e-11
3.55858e-11
-3.03264e-11
-8.50837e-12
-4.88697e-11
3.3987e-11
-2.95931e-11
-7.1653e-12
-4.21213e-11
3.21657e-11
-2.95343e-11
-9.38217e-12
-3.95265e-11
3.17034e-11
-2.67632e-11
-7.53297e-12
-3.49137e-11
2.69762e-11
-2.44207e-11
-7.16587e-12
-3.13962e-11
3.16073e-11
-2.28366e-11
-1.22841e-11
-2.64833e-11
2.72179e-11
-1.91402e-11
-1.29873e-11
-2.26641e-11
2.3688e-11
-1.34841e-11
-1.40213e-11
-1.35076e-11
2.04793e-11
-2.16649e-11
-7.9694e-12
-1.68804e-11
1.35457e-11
-8.54185e-12
-1.62993e-12
-9.67132e-12
7.35908e-12
-5.4663e-11
4.0097e-11
-2.00287e-11
2.10647e-11
-4.43566e-11
3.36497e-11
-6.14951e-12
8.3314e-12
-4.27797e-11
2.05702e-11
-5.51603e-12
1.47974e-11
-5.0472e-11
3.50427e-11
-3.47736e-12
1.33535e-11
-4.31431e-11
2.77516e-11
-4.25164e-12
1.54913e-11
-5.0353e-11
3.56381e-11
-3.63219e-12
1.37167e-11
-4.32141e-11
2.88792e-11
-2.71096e-12
1.51279e-11
-5.06363e-11
3.45911e-11
-8.44284e-13
1.32276e-11
-4.36839e-11
2.85919e-11
1.21954e-11
1.02961e-11
-5.09571e-11
2.7625e-11
-1.49516e-13
2.33166e-11
-5.15737e-11
4.06042e-11
-8.34395e-15
1.39181e-11
-4.42389e-11
3.01818e-11
1.30883e-11
9.39516e-12
-4.94087e-11
2.69189e-11
1.59192e-11
1.54513e-11
-4.92736e-11
3.09945e-11
1.57265e-11
1.62197e-11
-4.87288e-11
3.2705e-11
1.53676e-11
1.44461e-11
-4.38144e-11
2.97297e-11
2.00524e-11
8.70786e-12
-3.63206e-11
2.293e-11
-4.95682e-13
2.33708e-11
9.5536e-12
-1.23744e-11
-6.77923e-12
1.77701e-11
-2.77713e-12
-8.31626e-12
2.04499e-11
-4.46511e-12
-8.88253e-12
2.18147e-11
-5.02615e-12
-8.39742e-12
2.05832e-11
-5.61462e-12
1.66575e-11
-1.74035e-12
-1.45394e-11
2.8208e-11
-1.27668e-11
1.57571e-11
-8.64136e-12
2.43839e-11
-6.96292e-12
1.70266e-11
-2.14226e-12
-1.31074e-11
2.6034e-11
1.67859e-11
-1.26828e-11
1.83363e-11
-2.5967e-12
-1.31968e-11
2.73781e-11
1.92204e-11
-1.50641e-11
1.83655e-11
-2.71686e-12
-1.25748e-11
2.47578e-11
1.92757e-11
-1.30927e-11
1.25343e-11
-1.97981e-12
2.20773e-11
1.93655e-11
-7.84306e-12
2.75009e-11
-1.5112e-11
2.32355e-11
3.45457e-11
-1.41601e-11
2.7596e-11
3.85818e-11
-1.37123e-11
3.33662e-11
4.38325e-11
-8.38615e-12
3.03568e-11
4.86183e-11
3.61215e-11
-9.29489e-12
4.78492e-11
3.64804e-11
-8.73085e-12
-9.77418e-12
1.47638e-11
8.39798e-12
3.44615e-11
-1.96623e-11
1.85359e-11
2.78339e-11
-7.96986e-12
7.32993e-12
1.7099e-11
-1.01216e-11
1.56204e-11
3.59814e-11
-4.94485e-11
-1.89909e-11
1.84313e-11
-3.69617e-11
2.7399e-11
-6.68455e-12
6.91141e-12
-3.51314e-11
1.59125e-11
-5.83189e-12
1.33686e-11
-4.53772e-11
3.11564e-11
-4.41418e-12
1.14988e-11
-3.53964e-11
2.24786e-11
-3.93411e-12
1.33806e-11
-4.41087e-11
3.02488e-11
-2.69689e-12
1.10605e-11
-3.51083e-11
2.28098e-11
1.02033e-11
9.69573e-12
-4.80241e-11
2.54299e-11
-2.02759e-12
2.22896e-11
3.97161e-11
-4.97746e-11
-1.34003e-12
1.26704e-11
-3.91253e-11
2.5769e-11
1.20661e-11
9.42843e-12
-4.83842e-11
2.55514e-11
1.46888e-11
1.57355e-11
-5.0022e-11
3.1664e-11
1.54414e-11
1.74976e-11
-5.21405e-11
3.38911e-11
1.48557e-11
1.75929e-11
-5.14461e-11
3.44398e-11
1.44851e-11
1.70085e-11
-4.92944e-11
3.26573e-11
1.30467e-11
1.59461e-11
-4.54411e-11
3.09345e-11
1.20961e-11
1.37691e-11
-4.01324e-11
2.73147e-11
1.63808e-11
7.94193e-12
-3.25553e-11
2.03289e-11
7.44682e-13
4.50659e-12
1.98312e-11
-8.70104e-12
-4.89059e-12
1.65262e-11
-2.94902e-12
-6.33999e-12
1.97129e-11
-4.49406e-12
-7.29406e-12
2.21354e-11
-5.23387e-12
-7.6346e-12
2.32787e-11
-5.92958e-12
-8.14421e-12
2.3819e-11
-5.71575e-12
-7.83521e-12
2.29803e-11
-5.79146e-12
-7.70896e-12
2.10658e-11
-5.45631e-12
1.67656e-11
-2.37521e-12
-1.24684e-11
2.74125e-11
1.42092e-11
-1.23871e-11
-7.54999e-12
2.27721e-11
-5.4011e-12
1.56116e-11
-2.40569e-12
-1.08381e-11
2.46535e-11
1.47449e-11
-1.29492e-11
1.69076e-11
-2.8672e-12
-1.06587e-11
2.32971e-11
1.61698e-11
-1.19037e-11
1.17813e-11
-2.16122e-12
2.13565e-11
1.66576e-11
-7.80185e-12
-1.20671e-11
2.66022e-11
2.09208e-11
-1.40979e-11
1.3157e-11
-2.27386e-12
2.13785e-11
1.80056e-11
-7.69061e-12
-1.10154e-11
2.39891e-11
2.05193e-11
-1.21141e-11
-6.13306e-12
1.22135e-11
-2.33241e-12
1.96803e-11
1.42873e-11
2.43026e-11
1.06547e-11
1.68871e-11
2.58083e-11
1.2247e-11
2.02315e-11
2.83203e-11
1.25058e-11
2.05664e-11
2.86824e-11
1.32224e-11
2.21335e-11
2.94954e-11
1.32992e-11
2.14999e-11
2.94302e-11
1.29721e-11
2.19391e-11
2.9757e-11
1.23244e-11
2.03257e-11
2.79036e-11
1.17787e-11
1.97473e-11
2.68724e-11
1.06903e-11
1.71234e-11
2.4358e-11
9.88427e-12
1.6414e-11
2.2347e-11
8.85294e-12
1.44024e-11
1.91274e-11
7.59367e-12
1.40644e-11
1.90159e-11
4.28754e-12
8.35679e-12
-7.94406e-12
2.73926e-11
2.85743e-11
-2.90087e-11
-1.20108e-11
1.15627e-11
-3.21035e-12
-1.45952e-11
1.28036e-11
-2.62755e-12
-1.58295e-11
1.42802e-11
-4.19558e-12
-1.69469e-11
1.5382e-11
-4.38281e-12
-1.73241e-11
1.61544e-11
-5.08957e-12
-1.76208e-11
1.72048e-11
-5.13107e-12
-1.73838e-11
1.79123e-11
-5.82631e-12
-1.75912e-11
1.90926e-11
-5.91406e-12
-1.67462e-11
1.88477e-11
-6.39511e-12
-1.60222e-11
1.85894e-11
-6.09172e-12
-1.49805e-11
1.77914e-11
-6.32813e-12
-1.39617e-11
1.71434e-11
-5.91727e-12
1.52599e-11
-6.35515e-12
2.76182e-11