/*--------------------------------*- C++ -*----------------------------------*\
| =========                 |                                                 |
| \\      /  F ield         | OpenFOAM: The Open Source CFD Toolbox           |
|  \\    /   O peration     | Version:  5.0                                   |
|   \\  /    A nd           | Web:      www.OpenFOAM.org                      |
|    \\/     M anipulation  |                                                 |
\*---------------------------------------------------------------------------*/
FoamFile
{
    version     2.0;
    format      ascii;
    class       surfaceScalarField;
    location    "60";
    object      phiRest;
}
// * * * * * * * * * * * * * * * * * * * * * * * * * * * * * * * * * * * * * //

dimensions      [0 3 -1 0 0 0 0];

internalField   nonuniform List<scalar> 
105711
(
5.44033e-12
1.60149e-11
-1.32438e-11
6.09364e-12
1.53477e-11
-7.79171e-12
5.05731e-12
-6.63487e-12
1.24744e-11
-4.80439e-12
1.5373e-12
-3.39561e-12
8.99331e-12
-2.07883e-12
7.75575e-12
-1.04056e-11
1.28742e-11
-8.68195e-12
1.5983e-11
-1.96725e-11
1.64277e-11
-4.98236e-12
9.47626e-12
-1.27318e-11
2.35852e-11
-4.3477e-12
6.47765e-12
-8.16958e-12
1.39595e-11
-2.79216e-12
1.66653e-12
-3.39393e-12
9.38139e-12
-1.17661e-12
7.5158e-12
-9.8711e-12
1.24446e-11
-8.41905e-12
1.2133e-11
-1.59031e-11
1.36604e-11
-2.37352e-12
6.46858e-12
-8.35269e-12
1.66799e-11
-2.6625e-12
1.62259e-12
-2.9927e-12
8.54241e-12
-7.03037e-13
6.17663e-12
-8.15236e-12
1.05494e-11
-6.94842e-12
8.82108e-12
-1.09323e-11
9.76051e-12
-1.47077e-12
1.6799e-12
-3.15752e-12
1.06365e-11
-3.36239e-13
6.67255e-12
-8.5303e-12
1.11336e-11
-7.59326e-12
9.1051e-12
-1.09627e-11
9.81206e-12
-1.27996e-12
1.76644e-12
-2.86689e-12
1.04197e-11
-2.12243e-13
6.71332e-12
-8.33037e-12
-7.48326e-12
1.08682e-11
8.62213e-12
-1.02813e-11
9.00629e-12
-6.31359e-13
1.76817e-12
-2.46175e-12
9.39979e-12
-8.19462e-14
6.28173e-12
-7.36169e-12
9.77343e-12
-6.92415e-12
7.70643e-12
-8.25802e-12
7.36606e-12
-5.30565e-13
1.80998e-12
-1.76691e-12
7.54982e-12
1.15761e-13
5.73123e-12
-5.54246e-12
7.09236e-12
-5.47086e-12
3.56991e-12
-2.75679e-12
4.41064e-12
5.09732e-13
8.28255e-12
-7.86509e-12
-9.22025e-12
1.23742e-11
8.24537e-12
-7.00602e-12
5.61717e-12
1.42824e-12
2.08878e-12
-8.26742e-13
6.23547e-12
7.49905e-13
5.32969e-12
-4.46081e-12
-4.76905e-12
5.98912e-12
3.22638e-12
-1.53372e-12
2.56778e-12
1.07136e-12
6.34565e-12
-4.99977e-12
8.36511e-12
-6.48392e-12
3.53739e-12
-1.39733e-12
2.77065e-12
1.437e-12
6.69354e-12
-5.20057e-12
-6.4108e-12
8.45576e-12
3.74407e-12
-1.13061e-12
2.19415e-12
1.88755e-12
7.08519e-12
-5.17417e-12
8.41452e-12
-6.58058e-12
3.80858e-12
-7.95584e-13
1.70092e-12
2.37244e-12
6.66953e-12
-4.67374e-12
7.81133e-12
-5.99788e-12
3.59138e-12
-4.78988e-13
1.24859e-12
2.30997e-12
6.05086e-12
-4.17078e-12
6.78914e-12
-5.07656e-12
3.046e-12
-1.92603e-14
6.22951e-13
2.40162e-12
3.10079e-12
-2.36799e-12
5.32048e-12
-3.00773e-12
8.37709e-12
-6.95849e-12
-7.49446e-12
9.17853e-12
3.86651e-12
-3.01944e-14
7.2405e-13
3.8172e-12
5.71106e-12
-3.77759e-12
6.34391e-12
-4.40864e-12
2.74847e-12
2.22539e-13
-4.47974e-14
2.78461e-12
2.74559e-12
-1.90659e-12
4.25236e-12
-2.34321e-12
6.42905e-12
-5.24447e-12
-5.30181e-12
6.86502e-12
2.7931e-12
2.83868e-13
9.38378e-14
3.25802e-12
2.60091e-12
-1.81951e-12
4.16793e-12
-2.15619e-12
5.38562e-12
-5.02466e-12
-4.44563e-12
6.68721e-12
8.07075e-12
-4.37892e-12
-7.29487e-12
8.99065e-12
3.49407e-12
6.00891e-13
4.86908e-12
-8.93208e-13
3.00108e-12
-1.78223e-12
4.22979e-12
-1.95415e-12
3.49609e-12
-3.68523e-12
-3.19279e-12
6.38481e-12
6.23097e-12
-5.71311e-12
-5.02211e-12
8.00225e-12
8.30153e-12
-4.04727e-12
-7.47179e-12
9.45022e-12
3.4162e-12
8.45504e-13
-1.3082e-12
5.34788e-12
2.84381e-12
-1.63478e-12
3.91144e-12
-1.70397e-12
3.29493e-12
-3.25746e-12
5.60154e-12
-2.79334e-12
4.0684e-12
-3.77437e-12
6.23478e-12
-3.23167e-12
4.66347e-12
-4.17878e-12
6.9538e-12
-3.36766e-12
5.06673e-12
-4.1631e-12
7.3976e-12
-3.63502e-12
5.09478e-12
-4.2857e-12
7.61098e-12
-3.35072e-12
5.08213e-12
-4.19745e-12
7.30347e-12
-3.09047e-12
4.76595e-12
-3.98559e-12
6.8438e-12
-2.53941e-12
4.38142e-12
-3.4818e-12
6.13699e-12
-2.26766e-12
3.99903e-12
-3.13842e-12
5.47278e-12
-1.94908e-12
3.28877e-12
-2.7221e-12
4.62064e-12
-1.18531e-12
2.67683e-12
-2.16937e-12
3.46242e-12
-6.78522e-13
7.87598e-13
-1.17489e-12
4.67792e-12
-1.6127e-12
-3.093e-12
5.70647e-12
2.76438e-12
-4.59078e-12
-2.84644e-12
-3.39044e-12
1.96762e-12
-3.79165e-12
-4.71557e-12
3.49034e-12
-4.3545e-12
-5.88268e-12
3.72217e-12
-4.85303e-12
-6.77471e-12
4.1334e-12
-5.43311e-12
-7.51844e-12
4.61549e-12
-5.77894e-12
-8.95717e-12
5.31582e-12
-5.77974e-12
-9.6694e-12
5.47174e-12
-5.7262e-12
-9.74693e-12
5.40648e-12
-5.29906e-12
-9.39043e-12
4.7995e-12
-4.78326e-12
-9.12447e-12
4.42902e-12
-3.90879e-12
-8.43359e-12
3.78416e-12
-2.97666e-12
-7.12997e-12
2.93971e-12
-5.77682e-12
2.00934e-12
3.46054e-12
-3.43306e-12
-2.83319e-12
-2.9697e-12
4.42431e-12
-4.25994e-12
-3.83241e-12
6.61012e-12
-5.97348e-12
-4.64434e-12
7.44949e-12
-3.84848e-12
-6.11331e-12
7.67895e-12
-4.59217e-12
-5.02522e-12
7.54366e-12
-4.79016e-12
-4.81898e-12
6.5943e-12
-4.57504e-12
-4.14219e-12
5.98007e-12
-4.3435e-12
-3.99728e-12
5.09415e-12
-3.70683e-12
-2.92246e-12
4.36618e-12
-3.65158e-12
-2.39231e-12
3.74338e-12
-3.2748e-12
-1.98234e-12
3.01928e-12
-2.76487e-12
-1.22409e-12
2.50483e-12
-2.23734e-12
-6.36534e-13
6.8782e-13
-1.21673e-12
4.42207e-12
-1.38728e-12
-2.70257e-12
4.90614e-12
2.29161e-12
-3.80791e-12
-2.54722e-12
-3.50741e-12
2.13354e-12
-3.31713e-12
-4.54526e-12
3.07639e-12
-4.02452e-12
-5.80778e-12
3.74858e-12
-4.69974e-12
-7.12034e-12
4.51913e-12
-5.4636e-12
-8.13529e-12
5.24593e-12
-6.36648e-12
-9.00322e-12
6.19767e-12
-3.28421e-12
-6.63764e-13
1.89973e-12
-4.31868e-12
1.34892e-12
-4.10366e-12
-2.64838e-12
2.11794e-12
-2.13627e-12
-1.52126e-12
-2.54092e-12
-2.15431e-12
-2.01571e-12
-2.63389e-12
-2.27384e-12
-2.42308e-12
-2.52145e-12
-2.47463e-12
-2.22947e-12
-3.16811e-12
-1.3516e-12
-1.84992e-12
-1.40905e-12
-8.3027e-12
1.04752e-12
5.49644e-12
-4.71724e-12
-9.28252e-12
6.61647e-12
-3.89391e-12
-8.95875e-12
3.87418e-12
-2.80532e-12
-7.46073e-12
2.93782e-12
1.73151e-12
-7.57398e-13
-5.89897e-12
2.118e-12
-3.4123e-12
-1.73624e-12
-1.05523e-12
-8.22517e-12
5.1105e-12
-3.8051e-12
-9.30932e-12
6.3449e-12
-2.91244e-12
-7.82557e-12
3.24704e-12
-6.19822e-12
2.10294e-12
3.39362e-12
-3.6211e-12
-2.7434e-12
-3.22556e-12
6.08016e-12
-5.85403e-12
-4.65672e-12
-4.3878e-12
-7.0647e-12
2.73209e-12
-1.77683e-12
-3.46985e-12
-1.87315e-12
3.2605e-12
-3.43891e-12
-2.98649e-12
4.27329e-12
-4.519e-12
-3.95252e-12
6.9835e-12
-6.64195e-12
-5.02531e-12
-4.07873e-12
-6.52102e-12
2.96225e-12
-1.62596e-12
-3.68198e-12
-1.73268e-12
3.01728e-12
-2.96905e-12
4.96468e-12
-2.04919e-12
3.36014e-12
-3.18339e-12
5.02508e-12
-2.18315e-12
3.28518e-12
-3.119e-12
5.19311e-12
-1.99777e-12
2.86614e-12
-2.93043e-12
4.79998e-12
-1.44896e-12
2.47983e-12
-2.74201e-12
-9.7361e-13
6.11549e-14
-1.69191e-12
6.0899e-12
-1.97792e-12
-3.41953e-12
6.41463e-12
9.23353e-13
-3.85806e-12
-2.61207e-12
-5.02223e-12
2.52186e-12
-3.21116e-12
-5.72545e-12
3.5812e-12
-3.46246e-12
-6.37713e-12
3.69649e-12
-3.52691e-12
-6.69789e-12
3.64178e-12
-3.3667e-12
-6.56352e-12
3.21869e-12
-2.91022e-12
-6.08563e-12
2.65917e-12
-9.38874e-13
-5.54551e-12
1.94681e-12
-1.17787e-12
-8.98367e-12
5.54085e-12
-4.48244e-12
-1.08254e-11
7.48727e-12
-3.72718e-12
-9.73842e-12
4.46311e-12
-2.60495e-12
-7.61175e-12
3.0496e-12
-6.07411e-13
-5.82562e-12
2.04934e-12
-8.16189e-13
-8.09845e-12
4.83705e-12
-3.53754e-12
-9.54762e-12
6.41362e-12
-2.58304e-12
-7.33932e-12
2.76242e-12
1.79669e-12
-5.51671e-13
-5.50456e-12
1.67423e-12
-3.28702e-12
-2.03867e-12
-5.8835e-13
-7.30981e-12
4.05893e-12
-2.33025e-12
-7.96162e-12
4.67755e-12
-5.58814e-12
1.71999e-12
3.17374e-12
-2.36691e-12
-3.49455e-12
-2.89842e-12
-5.70949e-12
-6.38559e-12
-2.9276e-12
-9.89901e-12
8.52692e-13
6.26309e-12
-4.88948e-13
-6.96362e-12
2.15659e-12
-4.69999e-13
-8.07573e-12
4.56274e-12
-2.3991e-12
-8.29078e-12
4.97354e-12
-5.54154e-12
1.45621e-12
3.2079e-12
-2.48997e-12
-3.40299e-12
-2.85479e-12
-6.18554e-12
-6.9711e-12
-3.02273e-12
-1.00758e-11
7.97376e-13
6.11358e-12
-3.35275e-13
-6.89837e-12
1.71939e-12
-1.45027e-13
-7.30384e-12
3.71136e-12
-8.20145e-12
4.24705e-12
-4.98799e-12
-5.91071e-12
-4.60461e-12
1.49912e-13
-1.00297e-11
4.98861e-12
-9.53934e-14
-2.68715e-12
-1.1136e-11
7.01252e-12
-7.04665e-12
1.97033e-12
4.69493e-12
-3.65121e-12
-3.56588e-12
-4.52429e-12
-5.73033e-12
-1.07395e-11
3.1899e-12
-2.37711e-12
-3.07711e-12
-3.46674e-12
8.43187e-12
-7.25675e-12
9.70943e-12
-7.69284e-12
3.95685e-12
-1.32894e-13
4.75408e-13
4.13294e-12
5.06214e-12
-3.86809e-12
-4.13463e-12
9.67559e-12
-5.29238e-12
-9.39589e-12
4.40745e-12
5.36897e-13
5.5296e-12
3.80039e-12
-2.90406e-12
-3.45028e-12
8.61974e-12
-6.95159e-12
-7.76424e-12
3.83828e-12
5.2651e-13
5.10799e-12
3.10387e-12
-2.42721e-12
-2.34107e-12
4.34258e-12
-4.4159e-12
-4.16018e-12
-6.67681e-12
-6.6243e-12
-4.43613e-12
-1.18101e-11
1.20315e-12
8.36473e-12
-3.07616e-12
-9.70557e-12
3.92821e-12
-7.16957e-12
2.19113e-12
3.31967e-12
-2.97801e-12
-4.41195e-12
-3.09696e-12
6.72589e-12
-6.86305e-12
-6.24704e-12
1.00491e-11
-5.77623e-12
-9.35527e-12
4.18917e-12
5.84614e-13
6.47909e-12
3.11124e-12
-2.49126e-12
-2.25421e-12
4.29275e-12
-4.66601e-12
-4.12544e-12
5.26056e-12
-5.8115e-12
-4.89284e-12
-7.55819e-12
-6.98834e-12
-5.61002e-12
-1.39218e-11
1.50292e-12
1.04696e-11
-4.42805e-12
-1.26493e-11
5.65453e-12
-3.0509e-12
-1.02307e-11
4.18648e-12
-8.03151e-12
3.07312e-12
3.4683e-12
-4.69491e-12
-2.95982e-12
-3.84284e-12
4.51367e-12
-6.53767e-12
-4.73654e-12
8.14867e-12
-9.32979e-12
-6.95287e-12
1.0613e-11
-6.70714e-12
-9.6775e-12
4.43129e-12
7.65535e-13
6.91945e-12
3.08273e-12
-2.46544e-12
-1.73025e-12
3.4149e-12
-3.88366e-12
-2.53332e-12
3.53951e-12
-4.00106e-12
-2.68619e-12
3.51294e-12
-4.05293e-12
-2.61733e-12
3.07012e-12
-3.91178e-12
-2.02138e-12
2.61541e-12
-3.61226e-12
-1.65713e-12
2.19938e-12
-3.20572e-12
-1.39867e-12
-3.53572e-13
-1.94167e-12
6.7978e-12
-2.30215e-12
-3.31911e-12
-4.52834e-15
6.28386e-12
-3.31461e-12
-2.39073e-12
-6.12672e-12
3.25578e-12
-2.82227e-12
-7.46667e-12
4.69143e-12
-3.12394e-12
-8.14406e-12
4.83162e-12
-3.48091e-12
-8.81188e-12
5.25521e-12
-3.39619e-12
-9.30042e-12
5.1609e-12
-3.29797e-12
-8.846e-12
4.74486e-12
-2.96155e-12
-8.54089e-12
4.31909e-12
-7.68224e-12
3.01947e-12
3.12781e-12
-4.80446e-12
-2.95233e-12
-3.0516e-12
3.34e-12
-5.48262e-12
-3.26909e-12
3.47504e-12
-5.63846e-12
-3.34141e-12
3.38865e-12
-5.74738e-12
-3.46553e-12
3.04295e-12
-5.35948e-12
-3.10526e-12
2.79391e-12
-5.20555e-12
-2.68817e-12
2.37345e-12
-4.75293e-12
-2.29175e-12
1.93817e-12
-4.04869e-12
-1.6411e-12
-7.00624e-13
-2.33293e-12
7.66843e-12
-2.69611e-12
-3.40009e-12
6.45167e-12
-8.36974e-13
-2.916e-12
-1.91243e-12
-7.23962e-12
3.41761e-12
-2.48922e-12
-8.89333e-12
5.42054e-12
-2.92999e-12
-1.04272e-11
6.11367e-12
-3.00285e-12
-1.13184e-11
6.18368e-12
-3.18249e-12
-1.17396e-11
6.5579e-12
-3.35355e-12
-1.22994e-11
6.72093e-12
-3.19023e-12
-1.18451e-11
6.04093e-12
-3.17487e-12
-1.11798e-11
5.67944e-12
-2.64663e-12
-9.83141e-12
4.49673e-12
2.5314e-12
-5.52904e-14
-8.50013e-12
3.37485e-12
-4.66782e-12
-2.46038e-12
1.15522e-13
-1.06481e-11
5.8087e-12
-4.31508e-12
-1.55527e-11
1.06521e-11
-3.82715e-12
-1.35214e-11
6.49415e-12
-2.57808e-12
-1.02331e-11
4.28783e-12
2.22218e-12
-1.58601e-13
-7.1918e-12
2.5477e-12
-3.79082e-12
-2.72299e-12
1.26787e-14
-8.39565e-12
4.43282e-12
-2.71675e-12
-1.11722e-11
7.03721e-12
-2.81886e-13
-8.34864e-12
2.93452e-12
-5.67887e-13
-9.75045e-12
5.62502e-12
-3.50177e-12
-1.18446e-11
7.82558e-12
-8.68672e-12
2.81664e-12
5.73123e-12
-5.95357e-12
-2.8298e-12
-5.63299e-12
-5.92013e-12
-9.94093e-12
2.7099e-12
-2.30803e-12
-3.54586e-12
-2.77591e-12
3.52476e-12
-5.07421e-12
-4.08679e-12
-8.1916e-12
-7.84878e-12
-3.37508e-12
-1.38394e-11
-6.96856e-13
9.71823e-12
-2.331e-12
-1.04393e-11
4.3196e-12
4.29313e-14
-7.08957e-12
2.40531e-12
1.44454e-13
-7.36621e-12
3.71849e-12
-2.17504e-12
-9.05452e-12
5.41882e-12
2.21254e-12
-3.67956e-14
-6.42533e-12
2.07216e-12
-3.16791e-12
-2.74237e-12
2.78578e-13
-6.67821e-12
3.19474e-12
-8.07604e-12
4.35241e-12
-4.80321e-12
-5.41682e-12
-4.5323e-12
6.31694e-13
-9.64906e-12
4.59582e-12
-3.81224e-13
-2.51633e-12
-1.1553e-11
7.44261e-12
1.36041e-13
-7.19963e-12
2.16812e-12
5.2805e-13
-6.08775e-12
2.61878e-12
4.05165e-13
-7.14413e-12
3.61425e-12
9.70076e-13
-6.8124e-12
2.68282e-12
-7.92922e-12
4.24811e-12
-3.99679e-12
-5.99882e-12
-4.74589e-12
1.5267e-12
-7.51768e-12
2.74104e-12
-7.45497e-13
-9.24812e-12
5.30429e-12
-4.30501e-12
-7.08954e-12
-5.37096e-12
2.21365e-12
-7.74544e-12
2.33891e-12
-1.11101e-12
-9.76165e-12
5.66982e-12
-4.20898e-12
-7.56816e-12
-5.72945e-12
2.8216e-12
-7.7276e-12
2.23727e-12
-1.5386e-12
-9.83695e-12
6.06014e-12
-3.94159e-12
-7.61689e-12
-6.00563e-12
3.1676e-12
-6.99511e-12
1.61387e-12
-1.72604e-12
-9.3742e-12
6.00794e-12
-3.49932e-12
-7.25623e-12
-5.6132e-12
2.93031e-12
-5.75012e-12
1.16517e-12
-1.8427e-12
-6.63873e-12
4.28081e-12
-2.16437e-12
-5.2552e-12
-4.96874e-12
-8.98205e-12
9.52511e-13
-1.13887e-12
6.4064e-12
-9.85977e-12
-7.10911e-12
1.58264e-12
-1.39117e-11
9.696e-12
-5.32939e-12
-6.60643e-12
-1.1834e-11
5.5311e-12
-5.38211e-12
-5.62864e-12
1.53625e-13
-7.98347e-12
6.20457e-12
-1.61033e-12
-5.51367e-12
-6.24113e-12
-8.06744e-12
2.02329e-13
-2.00151e-12
8.26153e-12
-6.80279e-12
-9.31621e-12
-2.07914e-13
-1.03729e-11
8.81036e-12
-1.7931e-12
-7.34181e-12
-8.03914e-12
-9.19143e-12
-1.24079e-13
-2.75711e-12
9.80139e-12
-7.0439e-12
-1.10798e-11
-8.66553e-13
-1.14162e-11
1.00183e-11
-1.74032e-12
-7.934e-12
-8.78318e-12
-9.30771e-12
-2.02813e-13
-3.19059e-12
1.0353e-11
-6.95511e-12
-1.13088e-11
-1.39483e-12
-1.17622e-11
1.04247e-11
-1.71018e-12
-8.06927e-12
-8.93505e-12
-8.75218e-12
-6.70242e-13
-3.21896e-12
1.01412e-11
-5.90347e-12
-1.07639e-11
-2.22459e-12
-1.03532e-11
9.34596e-12
-1.42095e-12
-6.94247e-12
-7.89021e-12
-6.0279e-12
-7.96621e-13
-2.9488e-12
-1.16143e-11
-7.89863e-12
-2.41857e-12
1.26759e-11
-6.86966e-12
-1.43124e-11
-3.10709e-12
-1.09797e-11
1.03856e-11
-1.47074e-12
-7.53807e-12
-8.83661e-12
-5.58416e-12
-1.12307e-12
-2.93362e-12
-8.05437e-12
-6.96356e-12
-3.29912e-12
-1.25719e-11
-1.02134e-11
-4.94277e-12
1.38714e-11
-5.29614e-12
-1.47484e-11
-6.39898e-12
-1.00452e-11
1.01109e-11
-1.06414e-12
-6.94613e-12
-7.32596e-12
-2.77529e-12
-2.36445e-12
1.20903e-11
2.93625e-11
-1.05877e-11
1.19146e-11
2.50576e-11
-9.53338e-12
9.19072e-12
2.13059e-11
-6.10763e-12
6.91133e-12
1.6206e-11
-4.93403e-12
1.56205e-12
1.15125e-11
-1.98544e-12
-4.17978e-12
8.25977e-12
1.53466e-11
-9.76493e-12
-1.22749e-11
1.69933e-11
2.11793e-11
-6.32992e-12
1.26879e-11
1.61009e-11
2.16368e-12
7.02653e-12
1.8494e-11
-3.45242e-12
1.65322e-12
1.03839e-11
-1.15184e-12
-3.85979e-12
7.52903e-12
1.35562e-11
-9.04925e-12
-1.03801e-11
1.18709e-11
1.59245e-11
-3.58665e-12
8.17171e-12
1.02622e-11
1.98023e-12
1.36257e-12
1.01791e-11
-4.50395e-13
-2.9186e-12
6.23859e-12
-7.2022e-12
-8.18465e-12
1.05133e-11
8.69599e-12
9.96309e-12
-1.78228e-12
1.63961e-12
1.05187e-11
-4.58748e-13
-3.00251e-12
6.55864e-12
1.08711e-11
-7.55781e-12
-8.23089e-12
8.72767e-12
9.56031e-12
-1.3078e-12
1.72808e-12
1.00773e-11
-2.98132e-13
-2.77765e-12
6.46022e-12
1.04659e-11
-7.45032e-12
-7.74699e-12
8.1877e-12
8.48169e-12
-8.06601e-13
1.71119e-12
8.8122e-12
-8.78903e-14
-2.24585e-12
6.26844e-12
9.26737e-12
-6.91722e-12
-6.90698e-12
7.19949e-12
6.6895e-12
-6.82608e-14
1.63786e-12
6.74232e-12
2.22361e-13
-1.40112e-12
5.22009e-12
6.3495e-12
-4.98674e-12
-4.94456e-12
3.25368e-12
3.89014e-12
5.12503e-13
-2.43447e-12
7.58454e-12
1.11167e-11
-8.39698e-12
-7.04957e-12
7.19555e-12
5.0843e-12
1.54228e-12
2.07812e-12
4.76223e-12
1.01233e-12
-6.56308e-13
5.2405e-12
5.2239e-12
-4.51272e-12
-3.87401e-12
1.93199e-12
5.17282e-12
-4.27101e-13
-1.43578e-12
5.09686e-12
-4.41256e-12
-4.31522e-12
5.56302e-12
2.98438e-12
2.06113e-12
1.25091e-12
-1.19778e-12
5.65132e-12
7.04392e-12
-5.27033e-12
-4.43965e-12
3.0871e-12
1.99548e-12
1.47441e-12
-9.04141e-13
5.90707e-12
6.85337e-12
-5.22386e-12
-4.44798e-12
3.41254e-12
1.20619e-12
1.93116e-12
-6.42348e-13
5.98725e-12
6.61842e-12
-5.10806e-12
-4.08542e-12
1.9947e-12
3.86999e-12
7.09441e-13
-5.87187e-13
3.9941e-12
4.28673e-12
-3.09109e-12
-3.19665e-12
8.81389e-12
-9.26506e-12
9.76658e-12
4.24804e-12
1.02697e-12
3.95934e-12
-4.1978e-13
6.57814e-12
7.33028e-12
-5.29309e-12
-4.36512e-12
3.19614e-12
5.71808e-13
2.91587e-12
-1.0609e-13
4.21147e-12
5.37196e-12
-3.34055e-12
-3.04774e-12
7.72759e-12
8.34416e-12
-7.60605e-12
3.47289e-12
1.55749e-13
4.14525e-12
-4.62852e-14
4.37029e-12
5.7278e-12
-3.41313e-12
-3.21074e-12
7.96062e-12
8.02878e-12
-7.44994e-12
3.41899e-12
-7.63194e-13
4.74499e-13
4.83116e-12
2.85515e-12
5.16718e-12
-2.1591e-12
-2.44211e-12
5.99524e-12
7.2604e-12
-5.03156e-12
-5.36738e-12
8.91064e-12
9.30728e-12
-7.99115e-12
3.65541e-12
-1.3579e-12
7.8048e-13
5.83376e-12
2.92617e-12
4.93696e-12
-2.00734e-12
-2.19836e-12
3.85092e-12
6.43203e-12
-3.64707e-12
-3.70788e-12
6.47995e-12
8.20439e-12
-5.23159e-12
-5.60002e-12
8.27383e-12
9.59777e-12
-7.47861e-12
3.41129e-12
8.9067e-13
5.31416e-12
-1.3422e-12
2.52215e-12
-1.65733e-12
-1.38749e-12
3.93459e-12
2.98107e-12
-3.03016e-12
5.04122e-12
-2.46721e-12
3.68131e-12
-3.46691e-12
5.6914e-12
-2.92191e-12
4.01515e-12
-3.64146e-12
6.1232e-12
-2.81285e-12
4.38735e-12
-3.68013e-12
6.33539e-12
-3.02487e-12
4.33557e-12
-3.52609e-12
6.19352e-12
-2.61282e-12
4.10833e-12
-3.21279e-12
5.55684e-12
-2.11416e-12
3.85709e-12
-2.89667e-12
5.00579e-12
-1.85485e-12
3.36234e-12
-2.58606e-12
4.53497e-12
-1.45112e-12
2.80615e-12
-2.20907e-12
3.38532e-12
-6.16985e-13
7.84881e-13
-1.24035e-12
4.78792e-12
-1.52471e-12
-3.3149e-12
5.87619e-12
2.91304e-12
-4.68994e-12
-3.09231e-12
1.99831e-12
-3.91067e-12
3.22877e-12
-4.29332e-12
3.26776e-12
-4.60335e-12
3.54875e-12
-4.74882e-12
3.77454e-12
-4.69361e-12
3.72024e-12
-4.52413e-12
3.75961e-12
-4.11507e-12
3.34556e-12
-3.41068e-12
2.78113e-12
-2.77608e-12
2.56915e-12
2.05713e-12
1.52869e-11
1.19262e-11
-2.12275e-11
6.34091e-12
-2.24326e-11
-4.70262e-11
4.69878e-11
3.14212e-11
7.36459e-12
8.96776e-12
-6.05435e-12
3.0085e-12
6.23094e-13
4.65077e-12
-9.17809e-13
2.29483e-12
-1.45004e-12
-1.89065e-12
4.05492e-12
2.7012e-12
-2.48963e-12
4.40597e-12
-2.32218e-12
3.03002e-12
-2.93361e-12
4.95534e-12
-2.34818e-12
3.40874e-12
-2.98759e-12
4.91346e-12
-2.30235e-12
3.57598e-12
-2.81006e-12
4.82295e-12
-2.17802e-12
3.46064e-12
-2.58773e-12
4.39905e-12
-1.69395e-12
3.16634e-12
-2.34438e-12
4.00653e-12
-1.36567e-12
2.74505e-12
-2.09191e-12
3.12909e-12
-6.13727e-13
9.28252e-13
-1.24392e-12
4.74837e-12
-1.6864e-12
-3.2784e-12
6.34205e-12
3.16005e-12
-5.29654e-12
-3.17742e-12
2.03882e-12
-3.69834e-12
2.96218e-12
-3.88544e-12
2.8461e-12
-4.01953e-12
3.10063e-12
-3.88923e-12
3.25078e-12
-3.60509e-12
3.06156e-12
-3.06829e-12
2.65135e-12
-2.43499e-12
2.56618e-12
1.77773e-12
1.35399e-11
-1.91169e-11
1.01163e-11
6.234e-12
4.244e-11
-4.20209e-11
-1.96088e-11
2.64992e-11
6.67456e-12
9.06795e-12
-5.45194e-12
7.68133e-12
9.26189e-12
-5.8602e-12
2.90405e-12
7.56897e-13
5.00158e-12
-9.81304e-13
2.26972e-12
-1.28254e-12
-1.77711e-12
3.69475e-12
2.46215e-12
-2.09933e-12
4.36732e-12
-2.45998e-12
2.69864e-12
-2.12785e-12
4.33589e-12
-2.44397e-12
2.59062e-12
-2.07429e-12
4.31884e-12
-2.13619e-12
2.38413e-12
-1.81976e-12
3.87907e-12
-1.85242e-12
1.05937e-12
-1.07242e-12
3.66671e-12
-1.26865e-12
-3.16976e-12
5.98972e-12
3.13729e-12
-4.89867e-12
-2.86098e-12
1.74662e-12
-3.07553e-12
2.39927e-12
-3.23152e-12
2.47856e-12
-2.89489e-12
2.35656e-12
-2.45649e-12
2.37408e-12
1.9722e-12
1.28536e-11
-1.74308e-11
9.77526e-12
5.51431e-12
-2.01125e-11
-3.84223e-11
3.98227e-11
2.60545e-11
6.47263e-12
8.3279e-12
-5.58946e-12
6.90713e-12
8.38703e-12
-4.45161e-12
7.37959e-12
8.29205e-12
-4.42594e-12
7.28349e-12
8.16221e-12
-3.74472e-12
6.79955e-12
7.65145e-12
-3.28574e-12
6.07508e-12
6.82727e-12
-2.4336e-12
4.68636e-12
-2.34136e-12
5.55312e-12
-1.81967e-12
3.44632e-12
-2.45957e-12
4.70952e-12
-1.00655e-12
2.6652e-12
-2.26753e-12
3.69689e-12
-6.4541e-13
5.4389e-13
-1.28272e-12
4.72845e-12
-1.3229e-12
-2.92457e-12
5.18882e-12
2.11816e-12
-3.83905e-12
-3.16524e-12
-3.34852e-12
2.30478e-12
-4.36775e-12
-4.56399e-12
3.49779e-12
-5.50218e-12
-5.08179e-12
3.75509e-12
-6.22607e-12
4.3708e-12
6.2377e-12
-4.57589e-12
4.78842e-12
-2.33656e-12
-1.29275e-12
3.46975e-12
-2.33777e-12
-9.04587e-13
2.4712e-12
-1.97987e-12
-3.66964e-13
6.1119e-13
-1.19472e-12
4.38174e-12
-1.32588e-12
-2.77465e-12
4.71006e-12
2.20725e-12
-3.532e-12
-2.65694e-12
-3.24953e-12
1.93497e-12
-4.03765e-12
-3.86352e-12
3.26334e-12
-5.46761e-12
-4.87364e-12
3.96419e-12
-6.51009e-12
5.04659e-12
6.03551e-12
-4.59444e-12
4.43895e-12
-2.18475e-12
-1.08896e-12
2.92638e-12
-2.01868e-12
-3.29286e-13
1.2501e-12
-1.20142e-12
-3.68664e-13
-3.30004e-12
-5.34123e-12
2.8142e-12
7.07825e-12
-3.71622e-12
-3.22645e-12
2.44091e-12
-5.2418e-12
-4.46154e-12
3.96754e-12
-6.23474e-12
4.68348e-12
5.8015e-12
-4.44265e-12
3.95123e-12
-1.94951e-12
-6.58814e-13
2.76946e-12
-1.88534e-12
-1.56696e-13
5.69702e-13
-1.11412e-12
4.34535e-12
-1.03048e-12
-2.77732e-12
4.7623e-12
2.12788e-12
-3.54338e-12
-3.21368e-12
-3.02418e-12
2.34506e-12
-4.75144e-12
-4.08682e-12
3.73836e-12
-5.8172e-12
4.82183e-12
5.25475e-12
-3.88312e-12
3.48736e-12
-1.65977e-12
-6.56891e-13
2.25372e-12
-1.76631e-12
-2.18383e-14
5.40869e-13
-9.55583e-13
3.6581e-12
-9.88792e-13
-2.19904e-12
3.83637e-12
1.80243e-12
-2.89924e-12
-2.34807e-12
-2.75309e-12
1.94479e-12
-3.75322e-12
-3.62765e-12
3.26534e-12
-4.61593e-12
4.10802e-12
3.5378e-12
-3.2479e-12
-2.61212e-12
2.33431e-12
-1.95343e-12
-4.68888e-13
1.01462e-12
-1.05366e-12
-3.77824e-13
-2.64364e-12
5.30095e-12
2.01906e-12
-3.66133e-12
-2.66601e-12
-3.23209e-12
2.19994e-12
-4.0081e-12
-4.36589e-12
3.75331e-12
-6.80776e-12
-6.52391e-12
6.07421e-12
-3.05917e-12
-1.01513e-12
2.08648e-12
-4.81965e-12
1.32791e-12
-3.92506e-12
-2.90437e-12
2.44108e-12
-2.54273e-12
-6.49616e-13
-3.31389e-12
-2.61266e-12
-1.15923e-12
-4.04711e-12
-3.45283e-12
-1.61908e-12
-4.8088e-12
-4.08881e-12
-2.2667e-12
-5.45518e-12
-4.39505e-12
-3.09045e-12
-6.46657e-12
5.44869e-11
-3.91234e-11
2.50997e-11
-2.30766e-11
-2.38492e-11
9.53102e-11
-7.3696e-11
5.17154e-11
3.66737e-11
-5.55162e-11
1.67803e-10
-1.30943e-10
7.87502e-11
-8.38189e-11
6.35194e-11
2.82384e-10
-2.39701e-10
1.30329e-10
1.11239e-10
-1.16448e-10
3.1386e-10
-2.13945e-10
1.66818e-10
1.44581e-10
-1.28937e-10
4.9297e-10
-1.42405e-10
-4.57584e-10
2.03047e-10
2.17827e-10
2.39945e-09
-7.98737e-10
-1.75133e-09
8.16698e-10
3.52639e-10
3.0089e-10
-3.01021e-10
-5.63895e-10
-2.42007e-10
1.62826e-10
1.17433e-10
3.52294e-09
-8.48152e-10
-2.52292e-09
8.96377e-10
1.3512e-09
4.71454e-09
-3.30231e-09
-9.68153e-10
1.04053e-09
2.03832e-09
6.02784e-09
-1.01363e-09
1.08082e-09
-4.15532e-09
2.77485e-09
7.44701e-09
-1.04117e-09
-5.08904e-09
1.12151e-09
3.58955e-09
8.84845e-09
-1.05129e-09
-5.93071e-09
1.14143e-09
4.43918e-09
-6.65822e-09
-1.0336e-09
5.1887e-09
1.13036e-09
-1.59581e-11
2.18133e-14
-3.68439e-13
-1.55343e-11
2.52138e-13
-3.50942e-13
-3.24604e-13
-1.56494e-11
3.02614e-13
-2.76279e-13
8.94039e-14
-1.5517e-11
-4.17952e-13
-1.70721e-13
4.56586e-13
-1.61514e-11
-3.2531e-14
-4.35154e-13
1.10238e-12
-1.69129e-11
3.53211e-13
-8.27981e-13
1.23647e-12
-1.85521e-11
8.90259e-13
-1.41495e-12
2.16412e-12
-2.03121e-11
1.31453e-12
-1.44604e-12
1.8916e-12
-2.24687e-11
5.12191e-13
-1.11023e-12
2.75521e-12
-2.46167e-11
3.91847e-13
-5.48143e-13
2.30486e-12
-2.68116e-11
8.80352e-13
-2.42691e-12
3.74211e-12
-2.84783e-11
1.2323e-12
-3.55157e-12
3.98673e-12
-3.03915e-11
9.55525e-13
-3.29613e-12
4.25466e-12
-2.3129e-11
-3.52495e-12
-2.91719e-12
-8.19912e-13
-1.0093e-11
3.14655e-11
-3.04342e-11
-1.40671e-11
-1.24825e-11
3.36277e-12
-3.18861e-13
-6.54396e-13
-1.47302e-11
2.2529e-12
-1.04209e-12
1.03679e-12
-1.67196e-11
2.59902e-12
-1.35589e-12
7.46217e-13
-1.78509e-11
3.13206e-12
-1.91109e-12
-8.91348e-14
-2.22933e-11
9.51026e-12
-2.46219e-12
-2.60459e-12
-2.81898e-11
-4.5083e-13
3.21428e-12
3.13568e-12
-3.41829e-11
3.86619e-12
5.85981e-12
-3.72977e-12
-3.94074e-11
5.30746e-12
3.17337e-12
-3.25242e-12
-3.02121e-11
4.48439e-12
-4.47709e-12
-9.19952e-12
-9.40183e-12
2.18265e-11
-2.87613e-11
-1.38726e-11
-1.16854e-11
3.82698e-12
-6.77427e-13
-8.65247e-13
-1.43588e-11
3.40371e-12
-1.66427e-12
9.34645e-13
-1.58024e-11
4.14959e-12
-2.36615e-12
-3.37807e-13
-2.37154e-11
1.05255e-11
3.86075e-13
-2.99641e-12
-2.54978e-11
2.45676e-12
-4.63488e-12
3.96454e-12
-3.06936e-11
6.26059e-12
-3.96161e-12
2.89972e-12
-3.34248e-11
7.18599e-12
-4.99004e-12
5.38696e-13
-3.7096e-11
8.11195e-12
-5.49706e-12
1.05961e-12
-3.95176e-11
9.48301e-12
-6.10263e-12
-9.56416e-13
-4.21896e-11
1.08615e-11
-8.9102e-12
7.22301e-13
-4.26744e-11
1.25751e-11
-1.0574e-11
-1.51492e-12
-4.39468e-11
1.32229e-11
-1.09054e-11
-1.04397e-12
-4.30219e-11
1.37292e-11
-1.17882e-11
-2.86484e-12
-4.28313e-11
1.40331e-11
-1.21474e-11
-2.07566e-12
-4.03066e-11
1.46628e-11
-1.30256e-11
-4.16152e-12
-3.83358e-11
1.44923e-11
-1.32683e-11
-3.19428e-12
-3.32237e-11
1.45358e-11
-1.41654e-11
-5.48178e-12
-3.14778e-11
1.57647e-11
-1.30959e-11
-4.41277e-12
-2.72426e-11
1.09937e-11
-1.2504e-11
-2.72372e-12
-2.47734e-11
1.6406e-11
-1.24514e-11
-6.42278e-12
-2.08968e-11
1.47563e-11
-1.09741e-11
-7.65805e-12
-1.81909e-11
1.35892e-11
-7.6381e-12
-8.6564e-12
-1.10807e-11
1.25903e-11
-1.44072e-11
-5.29307e-12
-1.3273e-11
8.32118e-12
-5.55904e-12
-5.69874e-13
-1.03216e-11
8.39268e-12
-4.47769e-11
3.34325e-11
-1.75186e-11
1.47262e-11
-3.04833e-11
2.29534e-11
-6.97381e-12
5.67461e-12
-3.03252e-11
1.41049e-11
-6.61538e-12
1.17451e-11
-4.14305e-11
2.93265e-11
-4.75406e-12
9.56055e-12
-3.07264e-11
1.93041e-11
-5.27168e-12
1.21009e-11
-4.06042e-11
2.90211e-11
-4.6347e-12
9.75699e-12
-3.06558e-11
2.02612e-11
-3.93765e-12
1.1679e-11
-4.02924e-11
2.79169e-11
-2.10419e-12
9.36374e-12
-3.09205e-11
1.97225e-11
7.49618e-12
7.84606e-12
-3.89932e-11
2.15471e-11
-1.49354e-12
1.69124e-11
-3.84263e-11
3.05036e-11
-1.02372e-12
9.35215e-12
-3.00106e-11
2.01883e-11
8.0167e-12
6.65767e-12
-3.53515e-11
1.96532e-11
9.56902e-12
1.06474e-11
-3.43779e-11
2.2178e-11
9.24709e-12
1.09373e-11
-3.33428e-11
2.27266e-11
8.97365e-12
9.62012e-12
-2.96452e-11
2.02978e-11
1.21271e-11
5.69453e-12
-2.43273e-11
1.54782e-11
3.09315e-13
1.40478e-11
4.30258e-12
-6.53154e-12
-3.80759e-12
1.15974e-11
-1.78601e-12
-4.78334e-12
1.36592e-11
-3.06299e-12
-5.28597e-12
1.4839e-11
-3.39863e-12
-5.2266e-12
1.43359e-11
-3.74714e-12
1.19529e-11
-1.1691e-12
-9.12642e-12
2.05151e-11
-9.00905e-12
9.5744e-12
-5.56708e-12
1.82444e-11
-4.89082e-12
1.324e-11
-1.59709e-12
-8.50382e-12
2.01019e-11
1.05954e-11
-8.95261e-12
1.44949e-11
-1.56226e-12
-8.59875e-12
2.17509e-11
1.22586e-11
-1.09149e-11
1.49227e-11
-1.85954e-12
-8.10949e-12
1.99208e-11
1.23028e-11
-9.19042e-12
1.03641e-11
-1.05376e-12
1.80415e-11
1.25261e-11
-5.4769e-12
2.20542e-11
-9.92647e-12
1.42354e-11
2.7527e-11
-9.02787e-12
1.6146e-11
3.02274e-11
-7.93065e-12
1.88199e-11
3.48778e-11
-4.03664e-12
1.41437e-11
3.77576e-11
1.91617e-11
-5.63463e-12
3.42738e-11
1.8009e-11
-3.53117e-12
-1.0697e-11
9.96184e-12
8.99506e-12
2.60141e-11
-1.5953e-11
9.60376e-12
1.36606e-11
-8.58397e-12
3.49535e-12
8.29639e-12
-1.03834e-11
1.0634e-11
2.69672e-11
-3.58015e-11
-1.51652e-11
1.02779e-11
-1.99989e-11
1.45023e-11
-7.0787e-12
3.68606e-12
-2.03079e-11
8.53423e-12
-6.68622e-12
9.36953e-12
-3.33916e-11
2.36299e-11
-5.3467e-12
6.91841e-12
-2.12558e-11
1.29968e-11
-5.01451e-12
9.36712e-12
-3.22315e-11
2.25323e-11
-4.01663e-12
6.79954e-12
-2.14299e-11
1.36316e-11
4.5949e-12
6.9657e-12
-3.47949e-11
1.92177e-11
-3.64762e-12
1.52719e-11
2.86941e-11
-3.57233e-11
-2.77762e-12
7.77187e-12
-2.39243e-11
1.52813e-11
6.11946e-12
6.52542e-12
-3.35306e-11
1.81081e-11
7.64715e-12
1.06501e-11
-3.42179e-11
2.20399e-11
8.0821e-12
1.16195e-11
-3.51323e-11
2.30771e-11
7.71635e-12
1.14824e-11
-3.40625e-11
2.29451e-11
7.47986e-12
1.09903e-11
-3.2259e-11
2.15038e-11
6.66152e-12
1.01809e-11
-2.93973e-11
2.00333e-11
6.13039e-12
8.78199e-12
-2.58794e-11
1.76268e-11
9.00353e-12
5.02591e-12
-2.10664e-11
1.3166e-11
1.33717e-12
-4.09011e-14
1.12066e-11
-3.49815e-12
-2.4297e-12
1.06666e-11
-1.87332e-12
-3.32199e-12
1.28207e-11
-3.14596e-12
-3.88392e-12
1.44095e-11
-3.66602e-12
-4.09625e-12
1.53143e-11
-4.11079e-12
-4.39225e-12
1.57624e-11
-3.98296e-12
-4.23685e-12
1.54657e-11
-4.00041e-12
-4.24867e-12
1.43923e-11
-3.72917e-12
1.17628e-11
-1.71317e-12
-6.54955e-12
1.90009e-11
7.56452e-12
-8.25098e-12
-3.94281e-12
1.60174e-11
-3.35052e-12
1.13198e-11
-1.49657e-12
-5.56992e-12
1.79532e-11
7.55943e-12
-8.6212e-12
1.24688e-11
-1.75214e-12
-5.2029e-12
1.7169e-11
8.03196e-12
-7.52718e-12
8.88298e-12
-1.02928e-12
1.5863e-11
8.21138e-12
-4.91145e-12
-5.1084e-12
1.97761e-11
9.59348e-12
-8.39566e-12
9.92404e-12
-9.01857e-13
1.60616e-11
7.99761e-12
-4.52933e-12
-4.07994e-12
1.8342e-11
8.56764e-12
-6.7655e-12
-2.61111e-12
9.35294e-12
-8.58797e-13
1.57826e-11
6.36441e-12
1.91754e-11
4.45728e-12
6.68382e-12
2.04363e-11
4.88589e-12
8.34342e-12
2.21765e-11
4.83056e-12
8.08937e-12
2.24576e-11
4.95279e-12
8.79665e-12
2.30678e-11
4.86092e-12
8.25544e-12
2.29633e-11
4.66769e-12
8.65674e-12
2.32773e-11
4.36212e-12
7.89576e-12
2.22408e-11
4.06826e-12
7.82624e-12
2.16394e-11
3.58021e-12
6.50062e-12
1.99707e-11
3.26258e-12
6.51441e-12
1.8561e-11
2.91029e-12
5.68142e-12
1.598e-11
2.52776e-12
6.30937e-12
1.38457e-11
1.40949e-12
3.17764e-12
-8.39055e-12
2.03536e-11
2.79937e-11
-2.61088e-11
-1.05087e-11
4.77434e-12
-1.24525e-12
-1.2287e-11
4.51429e-12
-2.06214e-13
-1.30293e-11
4.9584e-12
-1.30313e-12
-1.37286e-11
5.37677e-12
-1.41179e-12
-1.38572e-11
5.65932e-12
-1.9474e-12
-1.40481e-11
6.21346e-12
-1.95139e-12
-1.37748e-11
6.53918e-12
-2.4477e-12
-1.37962e-11
7.18462e-12
-2.49308e-12
-1.32138e-11
7.21206e-12
-2.93122e-12
-1.27592e-11
7.22606e-12
-2.72559e-12
-1.1837e-11
6.90506e-12
-2.99499e-12
-1.10196e-11
6.78025e-12
-2.70971e-12
6.12949e-12