/*--------------------------------*- C++ -*----------------------------------*\
| =========                 |                                                 |
| \\      /  F ield         | OpenFOAM: The Open Source CFD Toolbox           |
|  \\    /   O peration     | Version:  5.0                                   |
|   \\  /    A nd           | Web:      www.OpenFOAM.org                      |
|    \\/     M anipulation  |                                                 |
\*---------------------------------------------------------------------------*/
FoamFile
{
    version     2.0;
    format      ascii;
    class       volVectorField;
    location    "60";
    object      UHyper;
}
// * * * * * * * * * * * * * * * * * * * * * * * * * * * * * * * * * * * * * //

dimensions      [0 1 -1 0 0 0 0];

internalField   nonuniform List<vector> 
36178
(
(-6.30367e-05 -0.000304751 0.000226252)
(-2.73351e-05 -0.000311495 0.000239577)
(-9.55091e-06 -0.00025539 0.000211597)
(4.71984e-07 -0.000203 0.000175498)
(2.09608e-06 -0.000291295 0.000259091)
(4.59885e-06 -0.000358239 0.000326812)
(1.53618e-05 -0.000273123 0.000258842)
(1.28292e-05 -0.000209235 0.000199361)
(1.2765e-05 -0.000159723 0.000159204)
(1.51306e-05 -0.000203277 0.000213604)
(1.87457e-05 -0.000252168 0.000260273)
(1.56168e-05 -0.000180079 0.000186414)
(9.44768e-06 -0.000139305 0.000147302)
(1.08181e-05 -0.000162603 0.000189937)
(1.37132e-05 -0.000196661 0.000214789)
(6.67814e-06 -0.0001437 0.000157121)
(7.00782e-06 -0.000171624 0.000200322)
(1.01309e-05 -0.000201819 0.000224152)
(2.88146e-06 -0.000146295 0.000161847)
(2.0881e-06 -0.000173718 0.000203104)
(4.34515e-06 -0.000199692 0.000221736)
(-6.03533e-07 -0.000141644 0.00015577)
(-2.56574e-06 -0.000165498 0.000190711)
(-1.42111e-06 -0.000188295 0.000201312)
(-3.20518e-06 -0.000130296 0.000138395)
(-8.69932e-06 -0.000143629 0.000157003)
(-6.04203e-06 -0.00016138 0.000170634)
(-3.78448e-06 -0.000172185 0.000195296)
(-8.62133e-06 -0.000183501 0.000192754)
(-8.03716e-06 -0.000120754 0.000127461)
(-1.51022e-05 -0.000125822 0.00013764)
(-1.30445e-05 -0.000134584 0.000138936)
(-1.6368e-05 -0.000133172 0.000146638)
(-1.89814e-05 -0.000141082 0.000142983)
(-2.0478e-05 -0.000132837 0.00014576)
(-2.25702e-05 -0.000138934 0.000140395)
(-2.35472e-05 -0.000130551 0.000143743)
(-2.56686e-05 -0.00013561 0.000138353)
(-2.49811e-05 -0.000124429 0.000139505)
(-2.50716e-05 -0.000127999 0.000131727)
(-2.61307e-05 -0.000115158 0.000132151)
(-2.87238e-05 -0.000117889 0.000121681)
(-1.98014e-05 -8.66769e-05 0.000108064)
(-3.99681e-05 -0.000134479 0.000159774)
(-2.79507e-05 -0.000135913 0.000152772)
(-2.95511e-05 -0.000120382 0.000143301)
(-3.24111e-05 -0.000119101 0.000125975)
(-2.05633e-05 -8.76255e-05 0.000107295)
(-3.94561e-05 -0.000131055 0.000152426)
(-3.17508e-05 -0.000125987 0.000135004)
(-2.11521e-05 -9.06744e-05 0.000109664)
(-2.82202e-05 -0.000119292 0.000151082)
(-5.0941e-05 -0.000176289 0.000198708)
(-3.93918e-05 -0.000143213 0.000158279)
(-2.54387e-05 -9.28061e-05 0.000118503)
(-3.43135e-05 -0.000121052 0.000154607)
(-3.76551e-05 -0.000141147 0.000179848)
(-5.69364e-05 -0.000192136 0.000222679)
(-4.39855e-05 -0.000147071 0.000171965)
(-2.83136e-05 -9.29183e-05 0.000124764)
(-3.37978e-05 -0.000113556 0.000154611)
(-4.06737e-05 -0.000123393 0.000168875)
(-4.40775e-05 -0.000131539 0.000180667)
(-4.64731e-05 -0.000139612 0.000191014)
(-4.85605e-05 -0.000145247 0.000197582)
(-4.87472e-05 -0.00014595 0.000197982)
(-4.76248e-05 -0.000143742 0.000193456)
(-4.32995e-05 -0.000138801 0.000184887)
(-3.97596e-05 -0.000132383 0.000177942)
(-3.65258e-05 -0.000123268 0.000167525)
(-3.11875e-05 -0.00011178 0.000152059)
(-2.79128e-05 -9.41532e-05 0.000125753)
(-3.00655e-05 -0.000139912 0.000171388)
(-2.06047e-05 -0.000123499 0.000130878)
(-3.44681e-05 -0.000135101 0.000146977)
(-3.88732e-05 -0.000148311 0.000159036)
(-4.35849e-05 -0.000157853 0.000169774)
(-4.80763e-05 -0.000162739 0.000174744)
(-5.19162e-05 -0.000166557 0.000180301)
(-5.25628e-05 -0.000168931 0.000185635)
(-4.9979e-05 -0.000167946 0.000184556)
(-4.69928e-05 -0.000164468 0.000178589)
(-4.43238e-05 -0.000158479 0.000170293)
(-4.26256e-05 -0.000151194 0.00016252)
(-3.66264e-05 -0.000141955 0.000153644)
(-3.87422e-05 -0.000130246 0.000139029)
(-3.16371e-05 -0.000114534 0.000151181)
(-3.90309e-05 -0.000126564 0.000169184)
(-4.09446e-05 -0.000134327 0.000181354)
(-5.13995e-05 -0.000165861 0.000210631)
(-5.38873e-05 -0.000180008 0.000231049)
(-5.38676e-05 -0.000185161 0.000238718)
(-5.34001e-05 -0.000185254 0.000237478)
(-4.71304e-05 -0.000175661 0.000223351)
(-5.11034e-05 -0.000144721 0.000196688)
(-4.56663e-05 -0.000141399 0.000190774)
(-4.2312e-05 -0.000135502 0.000180606)
(-3.70971e-05 -0.000122341 0.000165253)
(-3.24362e-05 -0.00010825 0.000148816)
(-2.92374e-05 -9.14089e-05 0.0001218)
(-2.77384e-05 -0.000132044 0.00015844)
(-2.11696e-05 -0.000120428 0.000125016)
(-3.53185e-05 -0.00013339 0.000142668)
(-3.99821e-05 -0.00014547 0.000155637)
(-4.43378e-05 -0.000156268 0.000168246)
(-4.91894e-05 -0.000163299 0.00017377)
(-6.61543e-05 -0.000173919 0.000193829)
(-4.26551e-05 -0.000140951 0.000166133)
(-2.67518e-05 -0.000122234 0.000123158)
(-3.54271e-05 -8.87946e-05 0.000119972)
(-3.22907e-05 -9.6182e-05 0.000124349)
(-3.32886e-05 -9.56454e-05 0.000124155)
(-3.2832e-05 -9.35114e-05 0.000121018)
(-2.453e-05 -8.41981e-05 0.00011377)
(-4.03667e-05 -0.000135689 0.000156253)
(-3.21992e-05 -0.000164526 0.000174305)
(-3.96276e-05 -0.000154832 0.000156216)
(-3.42735e-05 -0.000144885 0.000147007)
(-3.61955e-05 -0.000130489 0.000131494)
(-2.56439e-05 -9.44248e-05 0.000121702)
(-4.25637e-05 -0.000147343 0.000165639)
(-3.25031e-05 -0.000171564 0.000178504)
(-3.5078e-05 -0.000151361 0.000150668)
(-3.67723e-05 -0.000132125 0.000131315)
(-2.98698e-05 -0.000116141 0.000146375)
(-3.63517e-05 -0.000134291 0.000170993)
(-5.59449e-05 -0.000185479 0.000212115)
(-2.54551e-05 -9.27288e-05 0.000115882)
(-3.05255e-05 -0.000114042 0.000145307)
(-3.84635e-05 -0.000130248 0.000165281)
(-3.91669e-05 -0.000137862 0.000176932)
(-5.55843e-05 -0.000175917 0.000205749)
(-2.6364e-05 -8.7375e-05 0.000109329)
(-2.96376e-05 -0.000104401 0.000132347)
(-3.24515e-05 -0.000111592 0.000142552)
(-3.48371e-05 -0.000114099 0.000149206)
(-3.73445e-05 -0.00011169 0.000148246)
(-3.74293e-05 -0.000106664 0.000141777)
(-3.67777e-05 -9.40864e-05 0.00012041)
(-4.17069e-05 -0.000145963 0.000168715)
(-2.61296e-05 -0.000125402 0.000122021)
(-3.74327e-05 -0.000131969 0.000129707)
(-3.71268e-05 -0.000138877 0.000131709)
(-3.68414e-05 -0.000141327 0.000131356)
(-3.67652e-05 -0.000137512 0.000126763)
(-3.40377e-05 -0.000129789 0.000120973)
(-3.59086e-05 -0.000120097 0.000111035)
(-4.26262e-05 -0.000139175 0.000147939)
(-3.46712e-05 -0.000169648 0.000172524)
(-4.01238e-05 -0.000156916 0.000153569)
(-3.35138e-05 -0.000140743 0.000139425)
(-3.3034e-05 -0.000125828 0.000123035)
(-3.96196e-05 -0.000141704 0.000153016)
(-3.07704e-05 -0.000166052 0.000169283)
(-3.17573e-05 -0.000142366 0.000137521)
(-2.97699e-05 -0.000121983 0.000115682)
(-2.1741e-05 -9.06042e-05 0.000111297)
(-3.58575e-05 -0.000132736 0.000138945)
(-2.48966e-05 -0.000150134 0.000151441)
(-2.92844e-05 -0.000122271 0.000118292)
(-2.15561e-05 -0.000107698 0.000133311)
(-4.60333e-05 -0.000147981 0.000164563)
(-3.04173e-05 -0.000159124 0.000157248)
(-3.28817e-05 -0.000130437 0.000124126)
(-3.26709e-05 -0.000136967 0.000146515)
(-2.48805e-05 -0.000149653 0.000151626)
(-2.79533e-05 -0.000118953 0.00011471)
(-2.1478e-05 -0.000102913 0.00012948)
(-4.58177e-05 -0.000144816 0.000163647)
(-2.81444e-05 -0.000159607 0.000153782)
(-3.05859e-05 -0.000126727 0.000116608)
(-3.28188e-05 -0.000130652 0.000139814)
(-2.80224e-05 -0.00013838 0.000141732)
(-2.86705e-05 -0.00012998 0.000154436)
(-2.88389e-05 -0.000154756 0.000165153)
(-2.15951e-05 -0.000157004 0.000155904)
(-2.50663e-05 -0.000120652 0.000110771)
(-1.5849e-05 -0.000109481 0.00013169)
(-4.24484e-05 -0.000175732 0.000184951)
(-1.90193e-05 -9.64902e-05 0.000108406)
(-3.87635e-05 -0.00014286 0.000158273)
(-3.03373e-05 -0.000141565 0.000147616)
(-2.02724e-05 -0.000112546 0.000139237)
(-5.11819e-05 -0.000174168 0.000183432)
(-3.50926e-05 -0.000151316 0.000157857)
(-2.19074e-05 -0.00011683 0.000142626)
(-4.73879e-05 -0.000157239 0.000172321)
(-3.40416e-05 -0.000140404 0.000148637)
(-2.12372e-05 -0.000104877 0.000131673)
(-3.5825e-05 -0.00012939 0.000156357)
(-4.97255e-05 -0.000161325 0.000184963)
(-3.27382e-05 -0.00017405 0.000174016)
(-3.43336e-05 -0.000154631 0.000145354)
(-3.42101e-05 -0.000131448 0.000121668)
(-2.0336e-05 -0.000114437 0.000139651)
(-3.2962e-05 -0.000139187 0.000165488)
(-5.14846e-05 -0.000186365 0.000204544)
(-3.55539e-05 -0.000151291 0.000166208)
(-2.16091e-05 -0.000105331 0.000138192)
(-3.86305e-05 -0.000126684 0.000157997)
(-4.3844e-05 -0.000141945 0.000173533)
(-5.55889e-05 -0.000162355 0.000186414)
(-4.05856e-05 -0.000177094 0.000169269)
(-4.26666e-05 -0.000168286 0.000156194)
(-3.58543e-05 -0.000153662 0.000144735)
(-3.68809e-05 -0.00013457 0.000124591)
(-2.96167e-05 -0.000122139 0.000145375)
(-3.8213e-05 -0.000136829 0.000165762)
(-4.09124e-05 -0.000149173 0.000180655)
(-6.16647e-05 -0.000194585 0.0002089)
(-4.16164e-05 -0.000151514 0.000159037)
(-2.3201e-05 -0.000104137 0.000129706)
(-3.62703e-05 -0.000117168 0.000139705)
(-3.73167e-05 -0.000125155 0.000148292)
(-3.72949e-05 -0.000128017 0.00015444)
(-3.84776e-05 -0.0001246 0.000153676)
(-3.72735e-05 -0.00011585 0.000146639)
(-3.60711e-05 -0.00010713 0.000138426)
(-3.5884e-05 -9.00356e-05 0.000114759)
(-4.13505e-05 -0.000142051 0.00015946)
(-2.64261e-05 -0.000123325 0.000116606)
(-3.67171e-05 -0.000133904 0.000127696)
(-3.66702e-05 -0.000143861 0.000131629)
(-3.89392e-05 -0.000152373 0.000135954)
(-3.94909e-05 -0.000155092 0.000136219)
(-3.99889e-05 -0.000150944 0.000132956)
(-3.64281e-05 -0.000144494 0.000127404)
(-4.03e-05 -0.000131647 0.000114254)
(-3.30309e-05 -0.000122181 0.00013948)
(-3.84295e-05 -0.000134792 0.000154229)
(-4.14686e-05 -0.000142145 0.000163298)
(-4.21901e-05 -0.000147871 0.000168685)
(-4.11699e-05 -0.000143581 0.000165955)
(-3.93737e-05 -0.000133701 0.000160014)
(-3.83139e-05 -0.00012214 0.00015095)
(-3.59549e-05 -0.000105724 0.0001357)
(-3.44216e-05 -8.68254e-05 0.00010989)
(-3.65361e-05 -0.000134012 0.000146872)
(-2.28899e-05 -0.000116337 0.000105073)
(-3.59024e-05 -0.00013245 0.000121243)
(-3.85691e-05 -0.000149363 0.000134668)
(-4.06551e-05 -0.000160774 0.000143072)
(-4.1962e-05 -0.000168619 0.000147237)
(-4.32343e-05 -0.000172813 0.000150126)
(-4.37703e-05 -0.00016848 0.000147128)
(-4.16158e-05 -0.000159253 0.000139796)
(-3.78194e-05 -0.000146603 0.000129979)
(-3.74802e-05 -0.000130985 0.000114668)
(-2.93117e-05 -9.86569e-05 0.000112406)
(-4.79845e-05 -0.000153791 0.000154342)
(-3.55474e-05 -0.000185174 0.000173106)
(-4.00288e-05 -0.000169257 0.000153404)
(-3.32823e-05 -0.000150778 0.000136718)
(-3.04075e-05 -0.000128279 0.00011516)
(-2.30953e-05 -9.81549e-05 0.000112139)
(-3.72019e-05 -0.00014508 0.000144368)
(-2.48452e-05 -0.000169205 0.000157246)
(-3.53507e-05 -0.000141105 0.000123003)
(-3.42096e-05 -0.000154128 0.000157924)
(-2.86844e-05 -0.000170643 0.000159047)
(-3.59656e-05 -0.000142216 0.000125914)
(-2.70713e-05 -0.000128782 0.00014537)
(-4.77156e-05 -0.000184075 0.000190936)
(-2.17686e-05 -9.67798e-05 0.000106072)
(-2.93111e-05 -0.000125223 0.000144601)
(-4.63176e-05 -0.000162538 0.00017502)
(-2.99772e-05 -0.000177039 0.000163409)
(-3.08065e-05 -0.000153936 0.000134556)
(-2.92463e-05 -0.000127864 0.000108391)
(-3.56213e-05 -0.00013903 0.000131903)
(-2.48609e-05 -0.000156468 0.000139354)
(-3.01684e-05 -0.000126406 0.000108402)
(-2.3846e-05 -9.65551e-05 0.000105239)
(-3.64146e-05 -0.000134755 0.00013014)
(-2.79047e-05 -0.000141372 0.000132637)
(-2.94157e-05 -0.00013611 0.00014801)
(-3.16294e-05 -0.000162364 0.000159043)
(-2.389e-05 -0.000167491 0.000152164)
(-2.43788e-05 -0.00012959 0.000111329)
(-2.80396e-05 -0.000130756 0.00012402)
(-1.99008e-05 -0.000132561 0.000119335)
(-2.51315e-05 -0.000132616 0.00013146)
(-2.0642e-05 -0.00013098 0.000121897)
(-2.32875e-05 -0.000129692 0.000141066)
(-2.44724e-05 -0.000143712 0.000140802)
(-2.09031e-05 -0.000140808 0.000129923)
(-2.25897e-05 -0.000142677 0.000150087)
(-2.24833e-05 -0.000153704 0.000149022)
(-1.80262e-05 -0.000147204 0.000135357)
(-2.07395e-05 -0.000149216 0.00015741)
(-2.02874e-05 -0.00015665 0.000155121)
(-1.40416e-05 -0.000149748 0.000139855)
(-1.81759e-05 -0.000152108 0.000162641)
(-1.57221e-05 -0.00015566 0.000157588)
(-9.27617e-06 -0.000148515 0.000141542)
(-1.34723e-05 -0.000149256 0.000163226)
(-1.21601e-05 -0.000147459 0.000153614)
(-4.67209e-06 -0.000135482 0.000133154)
(-1.2487e-05 -0.000134525 0.000148784)
(-5.10718e-06 -0.000128551 0.000139625)
(-1.60288e-06 -0.000199179 0.000216922)
(-1.75972e-06 -0.000186874 0.000187197)
(4.32161e-07 -0.000192911 0.000219965)
(6.00063e-06 -0.000170009 0.000185716)
(3.42001e-06 -0.000153214 0.000154441)
(-5.8492e-06 -0.000155213 0.00018006)
(-1.81561e-06 -0.000136565 0.000152472)
(2.02293e-07 -0.00019761 0.000222326)
(4.86313e-06 -0.000177955 0.000189512)
(-2.23322e-08 -0.000171886 0.000207448)
(2.47713e-06 -0.000147316 0.000169684)
(8.05587e-06 -0.000208249 0.000238545)
(1.12206e-05 -0.000184548 0.00020088)
(7.36527e-06 -0.000177623 0.000216896)
(7.10421e-06 -0.000150373 0.000172971)
(1.3501e-05 -0.00020875 0.000239634)
(1.67604e-05 -0.000183092 0.000198728)
(1.09986e-05 -0.000176417 0.000213049)
(9.66743e-06 -0.000146424 0.000168028)
(1.80099e-05 -0.000198273 0.000226711)
(2.00161e-05 -0.000175279 0.000185038)
(1.28092e-05 -0.000167309 0.00019986)
(1.04582e-05 -0.000138952 0.000154531)
(1.49041e-05 -0.000181255 0.000197281)
(1.70442e-05 -0.000253654 0.000272184)
(2.15435e-05 -0.000210429 0.000207916)
(1.04972e-05 -0.000204482 0.000224372)
(7.23764e-06 -0.000162034 0.000165661)
(7.95362e-06 -0.000208921 0.00021091)
(6.62739e-07 -0.000276003 0.000269892)
(-2.15128e-05 -0.000349685 0.000334843)
(-1.8752e-06 -0.000285484 0.00025472)
(-2.5323e-05 -0.000276375 0.000263046)
(-2.02094e-05 -0.00018534 0.000168906)
(-4.72468e-05 -0.000453835 0.000331885)
(-6.22793e-06 -0.000404006 0.000302079)
(7.9124e-06 -0.000342812 0.000269775)
(1.30362e-05 -0.000267605 0.000218667)
(1.23472e-05 -0.000210855 0.000179092)
(1.86008e-05 -0.000274161 0.000249124)
(1.99345e-05 -0.000363243 0.000326305)
(2.66189e-05 -0.000266997 0.000262462)
(1.83637e-05 -0.000207548 0.000191724)
(1.14508e-05 -0.000161491 0.000154938)
(1.65602e-05 -0.000196658 0.000204873)
(1.61488e-05 -0.00025827 0.000255821)
(1.69249e-05 -0.000173385 0.000187459)
(6.63817e-06 -0.000137101 0.000140796)
(6.98409e-06 -0.00016306 0.000180565)
(8.85153e-06 -0.000196008 0.000204884)
(3.03886e-06 -0.000143288 0.000150599)
(2.34569e-06 -0.0001713 0.000190154)
(4.91777e-06 -0.000201182 0.000212533)
(1.28658e-06 -0.000144242 0.000152478)
(6.46903e-08 -0.000170886 0.00018958)
(1.50975e-06 -0.000196042 0.000206583)
(-1.12134e-06 -0.000138618 0.000145779)
(-2.69295e-06 -0.000164031 0.00017916)
(-2.37518e-06 -0.000181747 0.000188057)
(-3.85476e-06 -0.000122762 0.000128442)
(-1.05554e-05 -0.000134585 0.000145638)
(-9.22993e-06 -0.000152865 0.00015994)
(-8.35395e-06 -0.000164611 0.000183931)
(-1.33974e-05 -0.000174058 0.000178561)
(-1.12114e-05 -0.000111638 0.000115076)
(-1.74986e-05 -0.000103903 0.00011212)
(-1.78184e-05 -0.000120745 0.000120139)
(-1.98718e-05 -0.000113492 0.000131109)
(-2.0516e-05 -0.000123074 0.000131376)
(-2.31042e-05 -0.00011703 0.000135966)
(-2.29762e-05 -0.000123736 0.000132293)
(-2.49354e-05 -0.000118065 0.00013585)
(-2.70569e-05 -0.00012058 0.000127031)
(-2.87773e-05 -0.000100732 0.000117584)
(-2.87662e-05 -0.000111421 0.000114435)
(-1.67392e-05 -8.5613e-05 0.000110641)
(-3.8696e-05 -0.000150989 0.00017685)
(-2.73672e-05 -0.000141146 0.000163588)
(-2.99866e-05 -0.000126102 0.000152438)
(-3.54542e-05 -0.00012826 0.000138503)
(-2.16147e-05 -9.61514e-05 0.000118537)
(-3.90956e-05 -0.000154779 0.000178438)
(-2.85951e-05 -0.000140074 0.000157156)
(-2.02283e-05 -0.00011124 0.000142359)
(-4.79363e-05 -0.000169732 0.000190437)
(-3.22977e-05 -0.000140376 0.000158262)
(-2.15791e-05 -0.000104943 0.000139511)
(-3.37306e-05 -0.00013048 0.00016943)
(-5.62295e-05 -0.000185003 0.000216226)
(-3.88442e-05 -0.00014693 0.000171395)
(-2.30995e-05 -0.000104724 0.000143189)
(-3.98261e-05 -0.000128403 0.000168071)
(-4.06962e-05 -0.000142802 0.000189806)
(-6.11656e-05 -0.000191451 0.000228912)
(-4.93151e-05 -0.000144666 0.000175609)
(-3.05525e-05 -9.15344e-05 0.000124719)
(-3.48746e-05 -0.00011066 0.000151241)
(-4.15799e-05 -0.000122629 0.000165642)
(-4.45367e-05 -0.00012952 0.000173348)
(-4.48478e-05 -0.000135187 0.000179024)
(-4.42184e-05 -0.000135825 0.00017999)
(-4.17127e-05 -0.000131952 0.000176678)
(-3.87165e-05 -0.000127738 0.000171894)
(-3.70491e-05 -0.000121479 0.000164353)
(-3.16603e-05 -0.000110301 0.00015129)
(-2.83748e-05 -9.36996e-05 0.000125835)
(-2.71817e-05 -0.000142326 0.000175732)
(-2.07005e-05 -0.000125101 0.000135282)
(-3.48943e-05 -0.000135758 0.000148304)
(-3.87606e-05 -0.00014475 0.000157258)
(-4.13738e-05 -0.00015066 0.000163475)
(-4.45485e-05 -0.000156758 0.000170123)
(-4.64384e-05 -0.000161273 0.00017442)
(-4.72495e-05 -0.000160927 0.000175505)
(-4.56063e-05 -0.00015662 0.000171538)
(-4.33739e-05 -0.000148338 0.000161013)
(-3.81758e-05 -0.000138304 0.000151896)
(-4.12475e-05 -0.000127882 0.000141912)
(-0.000102207 -0.000331645 0.000401392)
(-0.000151345 -0.000482136 0.000601039)
(-6.49128e-05 -0.000184864 0.000224123)
(-4.80039e-05 -0.000139078 0.000167448)
(-3.30344e-05 -9.12702e-05 0.000122594)
(-3.47039e-05 -0.000101839 0.0001289)
(-3.31923e-05 -0.000110494 0.000152738)
(-3.90957e-05 -0.000115372 0.000160469)
(-3.94328e-05 -0.000115374 0.000161043)
(-3.82531e-05 -0.000113308 0.000159565)
(-3.76555e-05 -0.000110961 0.000154766)
(-3.3337e-05 -0.00010349 0.000144964)
(-3.01739e-05 -8.92562e-05 0.000122253)
(-3.27867e-05 -0.000141288 0.000173903)
(-2.24215e-05 -0.000122061 0.000133886)
(-3.63565e-05 -0.000130678 0.000145977)
(-3.82597e-05 -0.000136693 0.000150202)
(-4.07472e-05 -0.000140312 0.000154553)
(-4.18443e-05 -0.000143494 0.000156759)
(-4.2074e-05 -0.000142747 0.000155851)
(-3.96945e-05 -0.000138665 0.000151355)
(-3.69049e-05 -0.000136353 0.000150267)
(-4.16603e-05 -0.000123689 0.000136206)
(-0.000104635 -0.000320078 0.000385887)
(-0.00014595 -0.000468468 0.000585066)
(-5.36662e-05 -0.000174426 0.00021816)
(-6.37164e-05 -0.000195411 0.000241891)
(-4.38963e-05 -0.000134157 0.000170902)
(-2.87874e-05 -8.12807e-05 0.000121547)
(-3.47536e-05 -8.96965e-05 0.000129018)
(-3.32177e-05 -8.99941e-05 0.000131689)
(-3.43974e-05 -8.83405e-05 0.000131321)
(-3.13393e-05 -8.53609e-05 0.000126598)
(-3.22059e-05 -7.83429e-05 0.000119844)
(-3.69565e-05 -0.000127258 0.000166832)
(-2.47342e-05 -0.000110834 0.000127258)
(-3.61163e-05 -0.000119863 0.000138273)
(-3.70051e-05 -0.000123623 0.00014378)
(-3.65844e-05 -0.000125988 0.000145844)
(-3.48314e-05 -0.000125456 0.000144801)
(-4.00948e-05 -0.000117986 0.000136327)
(-9.8718e-05 -0.000301486 0.000386947)
(-0.00013834 -0.000433542 0.000588557)
(-5.15575e-05 -0.000156484 0.000219195)
(-5.2724e-05 -0.000162445 0.000236786)
(-5.17869e-05 -0.000164152 0.000243104)
(-5.26913e-05 -0.000161974 0.000243599)
(-4.97221e-05 -0.00015714 0.000236913)
(-4.3508e-05 -0.000147709 0.000219386)
(-4.59219e-05 -0.000119339 0.000189301)
(-4.24223e-05 -0.000114538 0.000179139)
(-3.76903e-05 -0.000104082 0.000161894)
(-3.53395e-05 -8.50883e-05 0.000130054)
(-3.54389e-05 -0.000126727 0.000173119)
(-2.65374e-05 -0.000119573 0.000144903)
(-4.00182e-05 -0.000134537 0.000165532)
(-4.25864e-05 -0.000142535 0.000175312)
(-5.92478e-05 -0.000152266 0.000195865)
(-3.66562e-05 -0.000171803 0.000224395)
(-4.0636e-05 -0.000131155 0.000195773)
(-3.49141e-05 -0.00012356 0.00018307)
(-3.14626e-05 -0.000106458 0.000161936)
(-2.96073e-05 -8.66743e-05 0.000130688)
(-2.721e-05 -0.000119716 0.000166278)
(-2.07024e-05 -0.000115883 0.000138484)
(-3.20364e-05 -0.000131297 0.000159855)
(-3.50813e-05 -0.000148552 0.000174736)
(-5.31409e-05 -0.000165093 0.000200931)
(-3.18077e-05 -0.000184896 0.000231483)
(-3.61912e-05 -0.000137141 0.000198244)
(-2.90218e-05 -0.000120441 0.000181342)
(-3.27658e-05 -0.000102704 0.000157907)
(-4.09558e-05 -0.00013701 0.000191729)
(-2.23098e-05 -0.000126589 0.000154595)
(-3.33616e-05 -0.000145614 0.000176238)
(-4.84908e-05 -0.000166671 0.000201906)
(-2.99019e-05 -0.000182122 0.000230706)
(-3.56547e-05 -0.000131277 0.000194049)
(-2.87005e-05 -0.000109822 0.000170989)
(-3.20293e-05 -8.64834e-05 0.000134351)
(-3.47719e-05 -0.000128795 0.00017621)
(-2.38891e-05 -0.000121864 0.00014574)
(-3.36016e-05 -0.000140033 0.000166853)
(-4.83027e-05 -0.000161118 0.00019346)
(-3.09745e-05 -0.000174636 0.000221527)
(-3.66088e-05 -0.000124894 0.00018392)
(-3.2432e-05 -0.000103641 0.00015939)
(-3.17119e-05 -8.06764e-05 0.000121407)
(-3.10945e-05 -0.000115765 0.000151908)
(-2.34274e-05 -0.00011072 0.000125601)
(-3.4008e-05 -0.000131109 0.000151685)
(-4.90186e-05 -0.000154967 0.000180614)
(-3.47477e-05 -0.000145771 0.00019359)
(-3.2488e-05 -0.000116304 0.000168406)
(-3.532e-05 -9.43733e-05 0.000141823)
(-4.08014e-05 -0.000123662 0.000162112)
(-2.34307e-05 -0.000116922 0.000127733)
(-3.7323e-05 -0.000137567 0.00015132)
(-5.48831e-05 -0.000159009 0.000179134)
(-4.46599e-05 -0.000141233 0.0001683)
(-2.72604e-05 -0.000124189 0.000125768)
(-3.87761e-05 -0.000103415 0.000141738)
(-3.74167e-05 -0.000116473 0.000159418)
(-4.19332e-05 -0.000126926 0.000174345)
(-4.59905e-05 -0.00013824 0.000187474)
(-5.47931e-05 -0.000144859 0.000196251)
(-4.70924e-05 -0.000184286 0.000223759)
(-0.000151244 -0.000500882 0.000597941)
(-0.000235048 -0.000801695 0.000975548)
(-0.000333947 -0.00120202 0.00145532)
(-0.000432594 -0.00164622 0.00202933)
(-0.000515202 -0.00205032 0.00252231)
(-0.000615177 -0.00248493 0.00316015)
(-0.000702746 -0.00280806 0.00375857)
(-0.000877341 -0.00353497 0.00496813)
(-0.00103136 -0.00399954 0.00597545)
(-0.00117369 -0.00425499 0.00683174)
(-0.00130689 -0.00433573 0.00752091)
(-0.00143229 -0.00427142 0.00806721)
(-0.00156386 -0.00416756 0.00856507)
(-2.2815e-05 -1.44006e-05 0.000173388)
(-2.27976e-05 -1.72379e-05 0.000183005)
(-2.06519e-05 -2.06043e-05 0.000190521)
(-2.122e-05 -2.68234e-05 0.00019996)
(-2.1722e-05 -3.39543e-05 0.000215949)
(-2.29324e-05 -4.01374e-05 0.00022938)
(-2.37756e-05 -4.99291e-05 0.00024596)
(-2.69449e-05 -5.83286e-05 0.00026046)
(-2.84135e-05 -6.89691e-05 0.0002793)
(-3.17809e-05 -7.46348e-05 0.000301664)
(-3.42686e-05 -8.38692e-05 0.000323504)
(-3.8983e-05 -9.36736e-05 0.00034607)
(-3.74685e-05 -0.000101087 0.000363071)
(-4.253e-05 -0.000113816 0.000395077)
(-3.69372e-05 -8.29089e-05 0.000350238)
(-2.89821e-05 -6.01153e-05 0.000237969)
(-2.00412e-05 -6.99778e-05 0.000268756)
(-1.88591e-05 -7.93413e-05 0.000288665)
(-1.91454e-05 -8.75946e-05 0.000306909)
(-2.14005e-05 -0.000107694 0.000333016)
(-1.77905e-05 -0.000113797 0.000345778)
(-2.48079e-05 -0.00014111 0.000393829)
(-3.27226e-05 -0.000167348 0.000442782)
(-2.78837e-05 -0.000186317 0.000488886)
(-2.46506e-05 -0.000128068 0.000383094)
(-2.48748e-05 -9.10312e-05 0.000254168)
(-1.67334e-05 -0.000108684 0.000291562)
(-2.34917e-05 -0.000125125 0.000315085)
(-2.94391e-05 -0.000138309 0.000331522)
(-4.22142e-05 -0.000162672 0.000342166)
(-4.97562e-05 -0.000190438 0.000400398)
(-5.86911e-05 -0.000207423 0.000418702)
(-6.25292e-05 -0.000220687 0.000439284)
(-7.09636e-05 -0.000230519 0.000452614)
(-7.40704e-05 -0.000239277 0.000471178)
(-8.58131e-05 -0.00025648 0.000486942)
(-8.95988e-05 -0.000267453 0.000489987)
(-9.97971e-05 -0.000274582 0.000485522)
(-0.000101219 -0.000277362 0.000477025)
(-0.000109718 -0.000280267 0.00046738)
(-0.000108616 -0.000277697 0.000450753)
(-0.000113094 -0.000274157 0.00043424)
(-0.000106228 -0.000257751 0.000389162)
(-0.000102751 -0.000239565 0.000381092)
(-9.94111e-05 -0.0002427 0.000367916)
(-9.96604e-05 -0.000240769 0.000349604)
(-8.82973e-05 -0.000214633 0.000308423)
(-6.13744e-05 -0.000188569 0.000276652)
(-3.36947e-05 -0.000160919 0.000236769)
(-9.06938e-05 -0.000268784 0.000383897)
(-0.000111354 -0.000275984 0.00036915)
(-8.88074e-05 -0.000254888 0.000326216)
(-8.969e-05 -0.0002612 0.00036163)
(-9.02213e-05 -0.000280189 0.000352843)
(-8.50698e-05 -0.000265315 0.000354795)
(-8.3257e-05 -0.000265043 0.000354102)
(-8.60104e-05 -0.000257449 0.000359663)
(-8.18475e-05 -0.000268884 0.000341302)
(-8.27891e-05 -0.000236468 0.000318837)
(-9.49272e-05 -0.00023845 0.000348292)
(-7.04413e-05 -0.000254924 0.000331449)
(-7.38148e-05 -0.000217728 0.000307297)
(-8.11049e-05 -0.000209915 0.000309201)
(-7.56443e-05 -0.000212057 0.000307764)
(-7.17445e-05 -0.000205183 0.000293582)
(-6.42421e-05 -0.000181774 0.00027034)
(-5.64389e-05 -0.000192857 0.000294276)
(-2.74235e-05 -0.00014086 0.000196999)
(-2.97489e-05 -0.000151701 0.00021499)
(-3.21431e-05 -0.000157261 0.000223908)
(-3.532e-05 -0.000158075 0.000221625)
(-1.72242e-05 -0.000142713 0.000202211)
(-6.26882e-05 -0.000189442 0.000277495)
(-4.06974e-05 -0.00017306 0.000246579)
(-2.32152e-05 -0.0001496 0.000213913)
(-6.84363e-05 -0.000195069 0.000278691)
(-2.69441e-05 -0.000164014 0.000224879)
(-7.52612e-05 -0.000203309 0.000284471)
(-2.88317e-05 -0.000160126 0.000232209)
(-7.50549e-05 -0.000203718 0.000283678)
(-3.02004e-05 -0.000159417 0.000221094)
(-5.75161e-05 -0.000188726 0.000266702)
(-8.61131e-05 -0.000214171 0.000303992)
(-9.96295e-05 -0.000240368 0.000345507)
(-0.0001054 -0.000251792 0.00037362)
(-0.00011243 -0.000248255 0.000394305)
(-0.000119498 -0.000281608 0.000403501)
(-0.000149218 -0.000312905 0.000487341)
(-8.31047e-05 -0.000213309 0.000346971)
(-0.000103653 -0.000234176 0.000344902)
(-8.75264e-05 -0.000215352 0.000315109)
(-8.70215e-05 -0.000220483 0.00035651)
(-0.000105648 -0.000226829 0.000349535)
(-8.51217e-05 -0.000204688 0.000306254)
(-8.44638e-05 -0.000212345 0.000339126)
(-8.35523e-05 -0.000225316 0.000331237)
(-8.10308e-05 -0.000213113 0.000331529)
(-7.63532e-05 -0.000211686 0.000326188)
(-8.15773e-05 -0.000203864 0.000320651)
(-8.85488e-05 -0.000210055 0.000358965)
(-6.9789e-05 -0.000215901 0.000335182)
(-7.40941e-05 -0.000203063 0.000310993)
(-7.84168e-05 -0.000195561 0.000320828)
(-8.04785e-05 -0.00020088 0.000325638)
(-7.84851e-05 -0.000198085 0.000322718)
(-7.9211e-05 -0.000191041 0.000314703)
(-7.59447e-05 -0.00018174 0.000302241)
(-7.5045e-05 -0.00016917 0.000283876)
(-6.84479e-05 -0.000142118 0.000256375)
(-6.54926e-05 -0.000150223 0.000280723)
(-3.54154e-05 -0.0001081 0.000192061)
(-3.85018e-05 -0.000119327 0.000212806)
(-3.92365e-05 -0.000130347 0.000227576)
(-3.99348e-05 -0.000137007 0.000235569)
(-3.82262e-05 -0.000141712 0.000239113)
(-3.82839e-05 -0.000141966 0.000238691)
(-3.75393e-05 -0.000141718 0.000234097)
(-2.20902e-05 -0.00012979 0.000212765)
(-6.47358e-05 -0.000168108 0.000283096)
(-3.91919e-05 -0.000152891 0.000244492)
(-2.47723e-05 -0.000131785 0.000207755)
(-6.89133e-05 -0.000171043 0.000272882)
(-2.83575e-05 -0.000133605 0.000221381)
(-6.9688e-05 -0.000175581 0.000272353)
(-2.96588e-05 -0.000131526 0.000211524)
(-5.38645e-05 -0.000159998 0.000256803)
(-7.72286e-05 -0.000191337 0.000292251)
(-3.12341e-05 -0.000136767 0.000224392)
(-5.40198e-05 -0.000162817 0.000262474)
(-7.19006e-05 -0.000189369 0.000285393)
(-3.166e-05 -0.000135617 0.000217942)
(-7.9616e-05 -0.000193891 0.0003039)
(-8.92935e-05 -0.000196935 0.00032388)
(-8.60668e-05 -0.00020227 0.000342166)
(-8.61721e-05 -0.000203807 0.000355114)
(-8.07428e-05 -0.000204687 0.000366186)
(-7.85481e-05 -0.000201859 0.000373346)
(-7.27742e-05 -0.000200212 0.000380906)
(-6.93742e-05 -0.000191291 0.000380139)
(-6.21322e-05 -0.000183063 0.000376032)
(-5.95411e-05 -0.000174302 0.000366494)
(-5.32616e-05 -0.000167707 0.000357198)
(-4.99704e-05 -0.000157886 0.000344863)
(-4.42492e-05 -0.000149815 0.00032956)
(-4.28451e-05 -0.000124279 0.000294603)
(-4.12638e-05 -0.000143021 0.000368216)
(-3.5074e-05 -0.000104936 0.000243858)
(-2.77853e-05 -0.000119132 0.000270485)
(-3.14815e-05 -0.000127476 0.00028045)
(-3.32589e-05 -0.000134592 0.000288083)
(-3.61645e-05 -0.000139057 0.000293188)
(-3.69202e-05 -0.000144726 0.000296206)
(-4.02229e-05 -0.000148946 0.000296974)
(-4.20355e-05 -0.000154599 0.000294522)
(-4.50628e-05 -0.000155469 0.000287722)
(-4.58988e-05 -0.000156699 0.000280052)
(-4.8621e-05 -0.000155811 0.000269754)
(-4.90409e-05 -0.000155007 0.000259024)
(-5.08626e-05 -0.000150851 0.000247894)
(-7.53523e-05 -0.000204711 0.000324311)
(-7.36689e-05 -0.000213494 0.000337544)
(-7.32795e-05 -0.000213579 0.000350729)
(-6.69829e-05 -0.000211495 0.000365745)
(-6.68966e-05 -0.000210436 0.000380858)
(-6.18714e-05 -0.000210407 0.000390816)
(-6.08994e-05 -0.00020372 0.000397998)
(-5.61241e-05 -0.000200737 0.000400354)
(-5.50104e-05 -0.000191658 0.000398764)
(-4.9757e-05 -0.000187457 0.000395611)
(-4.84411e-05 -0.000177611 0.000388703)
(-4.31097e-05 -0.000168235 0.000379293)
(-3.86672e-05 -0.000146486 0.000346699)
(-2.67335e-05 -0.000125763 0.000326772)
(-4.62832e-05 -0.000176896 0.000403608)
(-5.10288e-05 -0.000211334 0.000487908)
(-4.89535e-05 -0.000191379 0.000447683)
(-3.64629e-05 -0.000166226 0.000427055)
(-2.80545e-05 -0.000137292 0.000374858)
(-1.7267e-05 -0.000114436 0.000330325)
(-2.8617e-05 -0.000158871 0.000411448)
(-2.44995e-05 -0.000134831 0.000377102)
(-1.97515e-05 -0.000115509 0.000348075)
(-2.49796e-05 -9.57486e-05 0.000306445)
(-2.66034e-05 -0.000108753 0.000399745)
(-2.4355e-05 -7.6867e-05 0.000258872)
(-1.20174e-05 -9.03773e-05 0.000296692)
(-2.02927e-05 -0.000108594 0.000319756)
(-3.20783e-05 -0.000159092 0.000482192)
(-2.49641e-05 -0.000108415 0.00036122)
(-2.46049e-05 -7.83313e-05 0.000247291)
(-1.78822e-05 -8.83577e-05 0.000278918)
(-2.05139e-05 -0.000102743 0.000297412)
(-2.54986e-05 -0.000113984 0.000309946)
(-3.71335e-05 -0.000147561 0.000372623)
(-2.97956e-05 -0.000131878 0.000357268)
(-2.58123e-05 -0.000112652 0.000327259)
(-2.44603e-05 -9.37956e-05 0.000294114)
(-5.46744e-05 -0.000249294 0.000793475)