/*--------------------------------*- C++ -*----------------------------------*\
| =========                 |                                                 |
| \\      /  F ield         | OpenFOAM: The Open Source CFD Toolbox           |
|  \\    /   O peration     | Version:  5.0                                   |
|   \\  /    A nd           | Web:      www.OpenFOAM.org                      |
|    \\/     M anipulation  |                                                 |
\*---------------------------------------------------------------------------*/
FoamFile
{
    version     2.0;
    format      ascii;
    class       volVectorField;
    location    "60";
    object      URest;
}
// * * * * * * * * * * * * * * * * * * * * * * * * * * * * * * * * * * * * * //

dimensions      [0 1 -1 0 0 0 0];

internalField   nonuniform List<vector> 
36178
(
(-5.53662e-07 -6.38912e-05 0.00014903)
(5.96243e-06 -9.37966e-05 0.00015719)
(1.11798e-05 -9.05173e-05 0.000145452)
(8.26589e-06 -8.88237e-05 0.000120995)
(2.22065e-05 -0.000123508 0.000177254)
(2.89956e-05 -0.000164455 0.000227154)
(2.29256e-05 -0.000138524 0.000179222)
(1.98332e-05 -0.000113005 0.000146246)
(1.45635e-05 -9.52714e-05 0.000120179)
(2.36714e-05 -0.000115976 0.000161168)
(2.64325e-05 -0.000153015 0.000195144)
(1.80846e-05 -0.000110389 0.000137005)
(9.8738e-06 -9.05805e-05 0.000109843)
(1.64901e-05 -9.76819e-05 0.000140393)
(1.58735e-05 -0.000124647 0.000154261)
(6.4312e-06 -9.15006e-05 0.000109585)
(1.18031e-05 -9.93358e-05 0.000137136)
(1.03684e-05 -0.000122044 0.000147327)
(2.70105e-06 -8.84039e-05 0.000104075)
(7.56527e-06 -9.45893e-05 0.000129614)
(6.05813e-06 -0.000116018 0.000138154)
(4.85611e-08 -8.32196e-05 9.53117e-05)
(2.90759e-06 -8.79623e-05 0.00011581)
(-7.05351e-07 -0.000108804 0.000118214)
(-3.73955e-06 -7.60327e-05 7.95278e-05)
(-5.0234e-06 -7.78109e-05 8.93743e-05)
(-8.78136e-06 -9.73452e-05 9.64777e-05)
(-4.85128e-06 -9.16562e-05 0.000106399)
(-1.43305e-05 -0.00010812 0.000101312)
(-1.13954e-05 -7.11697e-05 6.61988e-05)
(-1.53009e-05 -6.95803e-05 7.19892e-05)
(-1.82285e-05 -8.3223e-05 7.27585e-05)
(-1.81639e-05 -7.3255e-05 7.47041e-05)
(-2.48822e-05 -8.75792e-05 7.25654e-05)
(-2.30032e-05 -7.30528e-05 7.17744e-05)
(-2.93631e-05 -8.62749e-05 6.84571e-05)
(-2.75654e-05 -7.1435e-05 6.81023e-05)
(-3.36837e-05 -8.33724e-05 6.42416e-05)
(-3.08856e-05 -6.69705e-05 6.2955e-05)
(-3.53998e-05 -7.75308e-05 5.74047e-05)
(-3.33702e-05 -6.06219e-05 5.65665e-05)
(-3.7648e-05 -6.9528e-05 4.98013e-05)
(-3.16142e-05 -4.31623e-05 4.01031e-05)
(-5.20742e-05 -6.94319e-05 5.96577e-05)
(-4.70246e-05 -7.51957e-05 5.76534e-05)
(-4.17138e-05 -5.80276e-05 5.44751e-05)
(-4.50022e-05 -6.38606e-05 4.53397e-05)
(-3.46712e-05 -3.85481e-05 3.49509e-05)
(-5.17463e-05 -5.83648e-05 4.96604e-05)
(-4.56791e-05 -5.9566e-05 4.35017e-05)
(-3.53631e-05 -3.31968e-05 3.21015e-05)
(-4.34192e-05 -4.52893e-05 4.56707e-05)
(-6.72244e-05 -6.71452e-05 6.16595e-05)
(-5.68522e-05 -5.77129e-05 4.79466e-05)
(-4.23273e-05 -2.72621e-05 3.17719e-05)
(-5.16338e-05 -3.9582e-05 4.35438e-05)
(-5.71744e-05 -4.36978e-05 5.09327e-05)
(-7.44834e-05 -6.28016e-05 6.2934e-05)
(-6.24642e-05 -5.24821e-05 4.86213e-05)
(-4.47855e-05 -2.43033e-05 3.21684e-05)
(-5.09128e-05 -3.40217e-05 4.21041e-05)
(-5.84569e-05 -3.38471e-05 4.57361e-05)
(-6.24553e-05 -3.34013e-05 4.78505e-05)
(-6.59291e-05 -3.17233e-05 4.90373e-05)
(-6.78363e-05 -3.01812e-05 5.01463e-05)
(-6.75189e-05 -2.74985e-05 5.01946e-05)
(-6.66338e-05 -2.51267e-05 4.99496e-05)
(-6.37259e-05 -2.27046e-05 4.81192e-05)
(-6.155e-05 -2.0826e-05 4.70893e-05)
(-5.81128e-05 -1.85074e-05 4.36611e-05)
(-5.06174e-05 -1.64356e-05 3.76252e-05)
(-4.54065e-05 -1.01898e-05 2.84262e-05)
(-5.75287e-05 -2.4396e-05 3.97556e-05)
(-4.1124e-05 -2.52483e-05 2.33343e-05)
(-5.38478e-05 -2.8561e-05 3.18821e-05)
(-6.03118e-05 -3.24242e-05 3.54502e-05)
(-6.39623e-05 -3.53814e-05 3.87635e-05)
(-6.72555e-05 -3.66964e-05 3.85091e-05)
(-7.03559e-05 -3.89651e-05 3.92453e-05)
(-7.22473e-05 -4.17003e-05 3.88094e-05)
(-7.20346e-05 -4.46313e-05 3.79158e-05)
(-7.03505e-05 -4.70414e-05 3.69768e-05)
(-6.65591e-05 -4.92974e-05 3.76026e-05)
(-6.2267e-05 -4.92691e-05 3.62849e-05)
(-5.64149e-05 -4.87985e-05 3.48208e-05)
(-5.31509e-05 -4.60037e-05 3.17034e-05)
(-5.13336e-05 -3.63831e-05 4.22144e-05)
(-6.17231e-05 -3.71291e-05 4.71812e-05)
(-6.43797e-05 -3.74889e-05 5.0928e-05)
(-7.38062e-05 -4.67929e-05 5.82974e-05)
(-7.93755e-05 -4.68951e-05 6.16693e-05)
(-7.87266e-05 -4.46731e-05 6.29277e-05)
(-7.70774e-05 -4.11935e-05 6.2816e-05)
(-7.00213e-05 -3.6604e-05 6.06429e-05)
(-7.01023e-05 -2.58317e-05 5.46015e-05)
(-6.35512e-05 -2.51217e-05 5.43272e-05)
(-6.02247e-05 -2.36346e-05 5.10722e-05)
(-5.44606e-05 -1.98034e-05 4.46523e-05)
(-4.63836e-05 -1.60611e-05 3.71148e-05)
(-4.08103e-05 -8.91837e-06 2.78905e-05)
(-4.78378e-05 -2.11935e-05 3.70553e-05)
(-3.51665e-05 -2.31463e-05 2.32105e-05)
(-4.91e-05 -2.8354e-05 3.13272e-05)
(-5.53426e-05 -3.3751e-05 3.6655e-05)
(-6.08779e-05 -3.7416e-05 4.17218e-05)
(-6.55594e-05 -3.88263e-05 4.27506e-05)
(-7.51129e-05 -4.21315e-05 4.81751e-05)
(-5.88925e-05 -3.70758e-05 4.83256e-05)
(-4.21895e-05 -3.29512e-05 2.68451e-05)
(-4.69237e-05 -1.61316e-05 3.01241e-05)
(-4.82852e-05 -1.828e-05 3.01109e-05)
(-5.02667e-05 -2.00076e-05 2.95032e-05)
(-5.08945e-05 -2.1733e-05 2.94221e-05)
(-4.32829e-05 -1.82714e-05 2.89364e-05)
(-6.49126e-05 -4.60197e-05 4.62825e-05)
(-6.8131e-05 -5.53205e-05 3.91653e-05)
(-6.36243e-05 -5.51229e-05 3.63898e-05)
(-5.64588e-05 -5.37161e-05 3.60312e-05)
(-5.12215e-05 -4.94158e-05 3.29998e-05)
(-4.36789e-05 -2.66523e-05 3.30303e-05)
(-6.187e-05 -5.64681e-05 5.01626e-05)
(-6.18421e-05 -6.27004e-05 4.17797e-05)
(-5.44038e-05 -5.70141e-05 3.62839e-05)
(-5.0495e-05 -5.17566e-05 3.28635e-05)
(-4.97616e-05 -4.20535e-05 4.51356e-05)
(-5.68334e-05 -4.64618e-05 5.33733e-05)
(-7.35544e-05 -6.67721e-05 6.66006e-05)
(-4.31913e-05 -3.01555e-05 3.5974e-05)
(-5.03265e-05 -4.06665e-05 4.56299e-05)
(-6.19853e-05 -4.41337e-05 5.18095e-05)
(-6.46555e-05 -4.49493e-05 5.53882e-05)
(-8.0012e-05 -5.8472e-05 6.40497e-05)
(-4.76372e-05 -2.40343e-05 3.32862e-05)
(-5.20226e-05 -3.13611e-05 4.02438e-05)
(-5.52906e-05 -2.87549e-05 4.23757e-05)
(-5.53986e-05 -2.64414e-05 4.37747e-05)
(-5.32117e-05 -2.40798e-05 4.36376e-05)
(-4.75904e-05 -2.40807e-05 4.26767e-05)
(-4.39091e-05 -1.95977e-05 3.68163e-05)
(-5.52032e-05 -4.39406e-05 5.65307e-05)
(-3.82156e-05 -3.91679e-05 3.27945e-05)
(-4.97302e-05 -3.93138e-05 3.61463e-05)
(-5.4126e-05 -4.09212e-05 3.46753e-05)
(-5.69785e-05 -4.3529e-05 3.43547e-05)
(-5.77572e-05 -4.59064e-05 3.41848e-05)
(-5.59337e-05 -4.72046e-05 3.37958e-05)
(-5.28504e-05 -4.60459e-05 3.32678e-05)
(-6.38815e-05 -5.61138e-05 5.15982e-05)
(-6.96956e-05 -6.55467e-05 4.68733e-05)
(-6.43219e-05 -6.34504e-05 4.3205e-05)
(-5.54396e-05 -5.83369e-05 4.01252e-05)
(-4.8513e-05 -5.21479e-05 3.69225e-05)
(-5.89889e-05 -5.96123e-05 5.19162e-05)
(-6.09393e-05 -6.57547e-05 4.44889e-05)
(-5.31152e-05 -5.94457e-05 3.67548e-05)
(-4.46633e-05 -5.23521e-05 3.35354e-05)
(-3.92881e-05 -3.08361e-05 3.36994e-05)
(-5.12869e-05 -5.92358e-05 4.6025e-05)
(-4.89646e-05 -6.40653e-05 3.78019e-05)
(-4.06043e-05 -5.45686e-05 3.26623e-05)
(-3.6893e-05 -4.35177e-05 4.58456e-05)
(-6.1495e-05 -6.15824e-05 5.477e-05)
(-5.8829e-05 -7.18205e-05 4.25735e-05)
(-4.62637e-05 -6.13484e-05 3.63178e-05)
(-5.1489e-05 -6.76051e-05 5.0835e-05)
(-5.06765e-05 -7.13079e-05 3.98473e-05)
(-3.95231e-05 -5.97474e-05 3.51146e-05)
(-3.55527e-05 -4.67214e-05 4.77495e-05)
(-6.08817e-05 -6.64791e-05 5.60835e-05)
(-5.73418e-05 -7.89617e-05 4.20126e-05)
(-4.2845e-05 -6.45511e-05 3.6111e-05)
(-4.94193e-05 -7.04886e-05 5.21801e-05)
(-4.76445e-05 -7.22436e-05 4.28379e-05)
(-4.31038e-05 -6.1554e-05 5.84696e-05)
(-5.06241e-05 -8.49421e-05 6.35292e-05)
(-4.78768e-05 -8.5261e-05 4.73206e-05)
(-3.49494e-05 -6.69849e-05 3.77684e-05)
(-2.74047e-05 -5.45251e-05 5.58739e-05)
(-5.79558e-05 -9.10488e-05 7.35547e-05)
(-3.21978e-05 -4.59139e-05 4.08602e-05)
(-5.02763e-05 -7.0223e-05 6.02558e-05)
(-4.83534e-05 -7.58014e-05 5.65461e-05)
(-3.46355e-05 -5.17659e-05 5.43306e-05)
(-6.6433e-05 -8.35726e-05 6.8556e-05)
(-5.74581e-05 -7.65574e-05 5.78832e-05)
(-3.97284e-05 -4.90376e-05 5.17531e-05)
(-6.56248e-05 -6.89013e-05 6.20285e-05)
(-5.58602e-05 -6.64218e-05 5.39889e-05)
(-3.99771e-05 -4.07747e-05 4.71223e-05)
(-5.82803e-05 -5.07402e-05 5.33605e-05)
(-7.0881e-05 -6.26241e-05 6.37313e-05)
(-6.956e-05 -7.57446e-05 5.12623e-05)
(-5.84046e-05 -6.97504e-05 4.42252e-05)
(-5.05871e-05 -6.06548e-05 3.90908e-05)
(-4.11741e-05 -4.79871e-05 5.48868e-05)
(-5.70895e-05 -6.07872e-05 6.42747e-05)
(-7.61553e-05 -8.24122e-05 7.94e-05)
(-6.54687e-05 -6.95202e-05 6.28414e-05)
(-4.22341e-05 -3.98384e-05 5.09258e-05)
(-6.07929e-05 -5.02584e-05 5.7729e-05)
(-6.86156e-05 -5.43855e-05 6.27021e-05)
(-7.98291e-05 -6.23816e-05 6.80995e-05)
(-7.85e-05 -7.65518e-05 5.52367e-05)
(-6.88234e-05 -7.53399e-05 5.2443e-05)
(-6.09968e-05 -7.03199e-05 4.88365e-05)
(-5.5195e-05 -6.20807e-05 4.1246e-05)
(-5.17173e-05 -5.50001e-05 5.91727e-05)
(-6.27164e-05 -6.0617e-05 6.95038e-05)
(-6.57338e-05 -6.54248e-05 7.83577e-05)
(-8.50478e-05 -8.79831e-05 9.1129e-05)
(-7.00262e-05 -6.75456e-05 6.5557e-05)
(-4.54544e-05 -3.59074e-05 4.97077e-05)
(-5.7285e-05 -4.03031e-05 5.17504e-05)
(-5.76495e-05 -3.91848e-05 5.32828e-05)
(-5.65096e-05 -3.69386e-05 5.40231e-05)
(-5.37392e-05 -3.39969e-05 5.40179e-05)
(-4.88713e-05 -3.16224e-05 5.23977e-05)
(-4.31945e-05 -3.05896e-05 4.98648e-05)
(-3.99206e-05 -2.38647e-05 4.15992e-05)
(-4.9542e-05 -5.1066e-05 6.2671e-05)
(-3.38835e-05 -4.67637e-05 4.00253e-05)
(-4.49e-05 -4.92674e-05 4.49213e-05)
(-4.91929e-05 -5.23568e-05 4.53187e-05)
(-5.35474e-05 -5.49211e-05 4.61705e-05)
(-5.62038e-05 -5.79654e-05 4.57477e-05)
(-5.76547e-05 -5.92636e-05 4.6084e-05)
(-5.66247e-05 -6.0719e-05 4.55508e-05)
(-5.75125e-05 -5.84522e-05 4.19218e-05)
(-5.17123e-05 -5.49278e-05 6.35116e-05)
(-5.62604e-05 -5.67924e-05 6.98888e-05)
(-5.66797e-05 -5.61752e-05 7.22848e-05)
(-5.58104e-05 -5.64893e-05 7.37018e-05)
(-5.32718e-05 -5.28521e-05 7.25165e-05)
(-4.94904e-05 -4.97442e-05 7.04234e-05)
(-4.5213e-05 -4.49347e-05 6.70079e-05)
(-3.90457e-05 -3.95752e-05 6.00813e-05)
(-3.6349e-05 -2.9984e-05 4.85811e-05)
(-4.15437e-05 -5.768e-05 6.84325e-05)
(-2.75212e-05 -5.35384e-05 4.60196e-05)
(-3.93369e-05 -6.09427e-05 5.41023e-05)
(-4.53928e-05 -6.80267e-05 5.9604e-05)
(-4.94594e-05 -7.3706e-05 6.30362e-05)
(-5.19995e-05 -7.66979e-05 6.44202e-05)
(-5.4147e-05 -8.00139e-05 6.58929e-05)
(-5.56076e-05 -7.95864e-05 6.49519e-05)
(-5.54859e-05 -7.89696e-05 6.34333e-05)
(-5.33627e-05 -7.56165e-05 5.94818e-05)
(-5.05454e-05 -6.89884e-05 5.409e-05)
(-4.6832e-05 -4.20958e-05 5.16417e-05)
(-6.39656e-05 -8.08048e-05 7.6178e-05)
(-6.72608e-05 -9.23444e-05 7.05676e-05)
(-6.33334e-05 -8.64873e-05 6.2245e-05)
(-5.50553e-05 -7.70094e-05 5.35483e-05)
(-4.64743e-05 -6.51637e-05 4.56527e-05)
(-4.32413e-05 -4.07712e-05 4.42243e-05)
(-5.63543e-05 -7.40697e-05 6.13751e-05)
(-5.63712e-05 -8.24159e-05 5.36183e-05)
(-5.23416e-05 -7.05099e-05 4.26422e-05)
(-5.99088e-05 -7.74494e-05 6.26989e-05)
(-6.07975e-05 -8.23517e-05 4.84147e-05)
(-5.07827e-05 -7.0027e-05 3.80899e-05)
(-4.41691e-05 -6.05504e-05 5.69435e-05)
(-6.6951e-05 -8.79062e-05 7.71291e-05)
(-3.70238e-05 -4.40654e-05 4.38737e-05)
(-4.75354e-05 -6.06625e-05 6.19283e-05)
(-6.50625e-05 -7.92496e-05 7.67908e-05)
(-5.7996e-05 -9.39322e-05 6.53704e-05)
(-4.83369e-05 -8.33533e-05 5.50187e-05)
(-4.04863e-05 -6.89149e-05 4.48531e-05)
(-4.76078e-05 -7.52089e-05 5.80455e-05)
(-4.6545e-05 -8.02497e-05 4.80306e-05)
(-3.98088e-05 -6.5436e-05 3.89687e-05)
(-3.7732e-05 -4.35666e-05 3.95255e-05)
(-4.72369e-05 -7.15605e-05 5.22001e-05)
(-4.43321e-05 -7.14954e-05 4.21611e-05)
(-4.0204e-05 -6.40414e-05 6.12117e-05)
(-4.75344e-05 -8.7776e-05 6.6745e-05)
(-4.56541e-05 -8.85452e-05 4.92277e-05)
(-3.29694e-05 -7.00386e-05 3.94206e-05)
(-3.75006e-05 -7.42165e-05 5.17734e-05)
(-3.36179e-05 -7.2354e-05 4.06503e-05)
(-3.71958e-05 -7.72155e-05 5.60942e-05)
(-3.47122e-05 -7.4169e-05 4.13377e-05)
(-3.14217e-05 -6.70291e-05 6.21562e-05)
(-3.55112e-05 -8.59386e-05 6.32617e-05)
(-3.2921e-05 -8.18465e-05 4.74784e-05)
(-2.94878e-05 -7.61068e-05 6.93459e-05)
(-3.22039e-05 -9.3377e-05 7.08253e-05)
(-2.90023e-05 -8.67978e-05 5.28311e-05)
(-2.58695e-05 -8.09213e-05 7.5785e-05)
(-2.88647e-05 -9.62724e-05 7.67319e-05)
(-2.41692e-05 -8.90598e-05 5.77317e-05)
(-2.23772e-05 -8.3559e-05 8.10921e-05)
(-2.37969e-05 -9.65159e-05 8.08918e-05)
(-1.8814e-05 -8.8543e-05 6.12752e-05)
(-1.72578e-05 -8.24911e-05 8.39293e-05)
(-1.943e-05 -9.17251e-05 8.0992e-05)
(-1.3687e-05 -8.14062e-05 5.95937e-05)
(-1.45594e-05 -7.54672e-05 7.82651e-05)
(-1.07174e-05 -7.71447e-05 7.32357e-05)
(-1.11881e-05 -0.000119939 0.00011502)
(-7.90399e-06 -0.000110251 8.93024e-05)
(-3.25559e-06 -0.000107934 0.00012088)
(-1.24009e-06 -0.000101948 0.000104634)
(-1.24597e-06 -8.97756e-05 7.78107e-05)
(-3.22627e-06 -8.40281e-05 0.000104574)
(-2.82513e-06 -8.00364e-05 8.81436e-05)
(4.94935e-07 -0.000113631 0.00013091)
(4.65542e-06 -0.000103057 0.000101952)
(4.23692e-06 -9.0791e-05 0.000124602)
(1.13023e-06 -8.55795e-05 0.000101968)
(6.76586e-06 -0.00012021 0.000146344)
(9.71595e-06 -0.000108973 0.00011436)
(9.12846e-06 -9.72744e-05 0.000136222)
(3.89793e-06 -9.12127e-05 0.000109558)
(1.0902e-05 -0.0001279 0.000157397)
(1.52676e-05 -0.000114429 0.000124085)
(1.33708e-05 -0.000104455 0.000145158)
(7.39053e-06 -9.40649e-05 0.000116383)
(1.7738e-05 -0.000124957 0.000161296)
(2.06176e-05 -0.000112676 0.000126194)
(1.67179e-05 -0.0001016 0.000144412)
(9.71132e-06 -8.95678e-05 0.000111675)
(1.6469e-05 -0.000108297 0.000139123)
(2.36183e-05 -0.000145773 0.000191827)
(2.66391e-05 -0.000123633 0.000144879)
(1.94413e-05 -0.000110464 0.000157572)
(9.52818e-06 -9.14856e-05 0.000115348)
(1.55003e-05 -0.000102519 0.000140845)
(1.42865e-05 -0.000121978 0.000165531)
(1.86421e-05 -0.000126831 0.000198737)
(2.08515e-05 -0.00011495 0.000156091)
(1.12805e-05 -8.77205e-05 0.000147354)
(-2.39265e-06 -5.99489e-05 9.30999e-05)
(6.42884e-06 -0.000149006 0.00023985)
(2.24256e-05 -0.000148184 0.00022996)
(2.52261e-05 -0.000141511 0.000204492)
(2.54436e-05 -0.000117683 0.000169093)
(1.65724e-05 -0.000105363 0.000135592)
(3.20447e-05 -0.000129719 0.000187293)
(3.98886e-05 -0.000184295 0.000245554)
(3.43437e-05 -0.000146298 0.000199337)
(2.40012e-05 -0.000115787 0.00014612)
(1.38585e-05 -9.73042e-05 0.000119971)
(2.56568e-05 -0.000110358 0.000159306)
(2.64058e-05 -0.000156133 0.00019738)
(2.14438e-05 -0.000105653 0.000142695)
(9.22423e-06 -8.56817e-05 0.0001047)
(1.5253e-05 -9.4021e-05 0.000133225)
(1.42411e-05 -0.000120233 0.000147282)
(5.76996e-06 -8.76118e-05 0.000104884)
(1.08255e-05 -9.56869e-05 0.000131071)
(9.65741e-06 -0.000119452 0.000142561)
(3.29072e-06 -8.54105e-05 9.94494e-05)
(7.53179e-06 -9.22059e-05 0.000122596)
(5.20293e-06 -0.000113448 0.000130265)
(6.31864e-07 -8.03037e-05 8.94182e-05)
(2.83974e-06 -8.66424e-05 0.000108727)
(-1.38917e-06 -0.000103875 0.000109599)
(-3.61055e-06 -7.02276e-05 7.2746e-05)
(-5.89726e-06 -7.11731e-05 8.17697e-05)
(-9.8709e-06 -9.05357e-05 8.9375e-05)
(-7.11353e-06 -8.61367e-05 9.95974e-05)
(-1.59058e-05 -0.000101088 9.30505e-05)
(-1.1098e-05 -6.46855e-05 5.88477e-05)
(-1.58516e-05 -5.61167e-05 5.5524e-05)
(-1.93975e-05 -7.34891e-05 6.05276e-05)
(-1.87977e-05 -6.25938e-05 6.66279e-05)
(-2.36287e-05 -7.63584e-05 6.64524e-05)
(-2.3192e-05 -6.46008e-05 6.73423e-05)
(-2.7951e-05 -7.72694e-05 6.44064e-05)
(-2.74426e-05 -6.5611e-05 6.46606e-05)
(-3.22761e-05 -7.46839e-05 5.80825e-05)
(-3.28332e-05 -5.40879e-05 4.92514e-05)
(-3.48569e-05 -6.7539e-05 4.68104e-05)
(-2.62697e-05 -4.5885e-05 4.4269e-05)
(-5.02568e-05 -8.22855e-05 7.08085e-05)
(-4.70021e-05 -8.09596e-05 6.43118e-05)
(-4.12554e-05 -6.31463e-05 5.98009e-05)
(-4.69323e-05 -7.07872e-05 5.27726e-05)
(-3.54321e-05 -4.40843e-05 4.16397e-05)
(-5.43138e-05 -7.29321e-05 6.0909e-05)
(-4.82801e-05 -6.86128e-05 5.21645e-05)
(-3.2681e-05 -4.31849e-05 4.65088e-05)
(-5.97346e-05 -6.71237e-05 5.766e-05)
(-4.94642e-05 -5.95814e-05 4.75297e-05)
(-3.41011e-05 -3.38007e-05 4.08916e-05)
(-4.91432e-05 -4.40515e-05 4.84899e-05)
(-7.0694e-05 -6.43776e-05 6.20464e-05)
(-5.99727e-05 -5.64004e-05 5.01724e-05)
(-3.93448e-05 -3.07589e-05 4.15237e-05)
(-5.68536e-05 -3.92216e-05 4.64507e-05)
(-5.8676e-05 -4.25065e-05 5.23581e-05)
(-7.54637e-05 -6.03922e-05 6.37429e-05)
(-6.33689e-05 -5.07911e-05 5.08548e-05)
(-4.28409e-05 -2.41178e-05 3.35548e-05)
(-4.71083e-05 -3.24231e-05 4.1407e-05)
(-5.44742e-05 -3.17635e-05 4.36235e-05)
(-5.82331e-05 -3.03352e-05 4.41728e-05)
(-6.10504e-05 -2.84541e-05 4.46407e-05)
(-6.19472e-05 -2.53182e-05 4.42329e-05)
(-6.15108e-05 -2.22437e-05 4.37163e-05)
(-6.02192e-05 -2.01608e-05 4.26904e-05)
(-5.87345e-05 -1.83834e-05 4.14387e-05)
(-5.24581e-05 -1.58075e-05 3.68773e-05)
(-4.83561e-05 -1.09656e-05 2.95101e-05)
(-6.18607e-05 -2.59963e-05 4.17936e-05)
(-4.53522e-05 -2.57515e-05 2.46161e-05)
(-5.68484e-05 -2.81977e-05 3.10279e-05)
(-6.12147e-05 -3.08913e-05 3.3001e-05)
(-6.24664e-05 -3.2978e-05 3.33351e-05)
(-6.44775e-05 -3.58532e-05 3.42424e-05)
(-6.48144e-05 -3.92484e-05 3.48082e-05)
(-6.42544e-05 -4.24834e-05 3.55961e-05)
(-6.20423e-05 -4.4667e-05 3.56158e-05)
(-5.82235e-05 -4.59627e-05 3.47977e-05)
(-5.27073e-05 -4.60514e-05 3.46142e-05)
(-5.20416e-05 -4.42817e-05 3.33523e-05)
(-0.000135387 -0.000123179 0.000129946)
(-0.000191984 -0.000183272 0.00019549)
(-7.21985e-05 -5.72092e-05 6.31771e-05)
(-5.68617e-05 -4.78441e-05 4.85608e-05)
(-3.86631e-05 -2.22456e-05 3.16013e-05)
(-4.66592e-05 -2.5184e-05 3.03084e-05)
(-4.64234e-05 -2.66192e-05 3.74779e-05)
(-5.31843e-05 -2.35752e-05 3.8379e-05)
(-5.47444e-05 -2.08712e-05 3.74134e-05)
(-5.58263e-05 -1.79449e-05 3.75915e-05)
(-5.61199e-05 -1.66984e-05 3.67233e-05)
(-5.18628e-05 -1.54412e-05 3.46998e-05)
(-4.87717e-05 -1.0882e-05 2.8118e-05)
(-6.60784e-05 -2.6404e-05 4.19385e-05)
(-4.58324e-05 -2.57134e-05 2.3939e-05)
(-5.672e-05 -2.75766e-05 2.9932e-05)
(-5.8968e-05 -2.96084e-05 2.96153e-05)
(-5.89355e-05 -3.16389e-05 3.01064e-05)
(-5.79873e-05 -3.49181e-05 2.98212e-05)
(-5.6686e-05 -3.79755e-05 3.06433e-05)
(-5.23402e-05 -4.04988e-05 3.0794e-05)
(-4.85357e-05 -4.25861e-05 3.26228e-05)
(-4.77536e-05 -4.1684e-05 3.20224e-05)
(-0.000124868 -0.000114845 0.000122865)
(-0.000174909 -0.000174457 0.000186968)
(-6.21024e-05 -5.01152e-05 5.93466e-05)
(-7.28956e-05 -5.35305e-05 6.24651e-05)
(-5.53147e-05 -4.03312e-05 4.5484e-05)
(-3.73822e-05 -1.52223e-05 2.78534e-05)
(-4.53495e-05 -1.82599e-05 2.787e-05)
(-4.74942e-05 -1.59634e-05 2.67886e-05)
(-4.96991e-05 -1.41982e-05 2.71548e-05)
(-4.93952e-05 -1.2155e-05 2.63052e-05)
(-4.91643e-05 -1.0343e-05 2.6609e-05)
(-6.32262e-05 -2.59064e-05 4.10609e-05)
(-4.59712e-05 -2.41639e-05 2.23159e-05)
(-5.30724e-05 -2.60256e-05 2.59798e-05)
(-5.28805e-05 -2.81813e-05 2.6822e-05)
(-5.09965e-05 -3.09998e-05 2.64636e-05)
(-4.78344e-05 -3.34325e-05 2.79229e-05)
(-4.75061e-05 -3.45614e-05 2.7402e-05)
(-0.000123098 -9.78926e-05 0.000114903)
(-0.000173973 -0.000148464 0.000175693)
(-6.2582e-05 -3.84759e-05 5.53205e-05)
(-6.84209e-05 -3.73744e-05 5.70291e-05)
(-7.25735e-05 -3.50063e-05 5.66976e-05)
(-7.5747e-05 -3.19366e-05 5.66188e-05)
(-7.67017e-05 -2.81723e-05 5.47179e-05)
(-7.1395e-05 -2.31028e-05 5.22202e-05)
(-6.82263e-05 -1.40618e-05 4.51261e-05)
(-5.84515e-05 -1.23556e-05 4.38446e-05)
(-4.78158e-05 -1.34745e-05 4.04746e-05)
(-4.11966e-05 -8.91743e-06 3.30684e-05)
(-5.16463e-05 -2.34561e-05 4.71105e-05)
(-4.01678e-05 -2.28041e-05 2.80494e-05)
(-5.53739e-05 -2.3774e-05 3.39422e-05)
(-6.54356e-05 -2.29857e-05 3.40116e-05)
(-7.66637e-05 -2.64547e-05 3.83109e-05)
(-7.66866e-05 -2.18323e-05 5.15932e-05)
(-7.06598e-05 -1.06712e-05 4.55539e-05)
(-5.79492e-05 -1.10313e-05 4.40159e-05)
(-4.66826e-05 -1.10221e-05 4.01873e-05)
(-3.9269e-05 -7.95269e-06 3.2646e-05)
(-4.74665e-05 -1.87364e-05 4.37755e-05)
(-3.62702e-05 -2.00007e-05 2.64957e-05)
(-5.28586e-05 -2.0071e-05 3.21223e-05)
(-6.28676e-05 -2.12102e-05 3.24642e-05)
(-7.81332e-05 -2.46333e-05 3.86997e-05)
(-7.64329e-05 -2.16501e-05 5.27423e-05)
(-6.80434e-05 -1.00056e-05 4.50514e-05)
(-5.48135e-05 -8.46429e-06 4.26732e-05)
(-4.44538e-05 -1.00848e-05 3.84759e-05)
(-5.63056e-05 -2.22124e-05 4.9744e-05)
(-4.23904e-05 -2.05918e-05 2.71758e-05)
(-6.01978e-05 -1.92118e-05 3.19958e-05)
(-7.44399e-05 -2.38051e-05 3.75647e-05)
(-7.16236e-05 -2.06699e-05 5.13111e-05)
(-6.31418e-05 -7.93935e-06 4.26748e-05)
(-4.68903e-05 -8.70454e-06 3.87903e-05)
(-3.85702e-05 -5.84432e-06 3.03296e-05)
(-4.67302e-05 -1.9202e-05 4.22319e-05)
(-3.69457e-05 -1.87371e-05 2.44701e-05)
(-5.24331e-05 -1.79001e-05 2.89677e-05)
(-6.76047e-05 -2.13889e-05 3.43588e-05)
(-6.40564e-05 -1.79164e-05 4.89575e-05)
(-5.51113e-05 -6.1615e-06 3.98143e-05)
(-4.10798e-05 -7.42899e-06 3.59422e-05)
(-3.29523e-05 -4.38593e-06 2.6776e-05)
(-3.74562e-05 -1.53368e-05 3.55481e-05)
(-2.92283e-05 -1.61332e-05 2.13745e-05)
(-4.39719e-05 -1.72739e-05 2.75417e-05)
(-5.8504e-05 -1.91888e-05 3.11802e-05)
(-5.71848e-05 -9.67434e-06 4.39912e-05)
(-4.29793e-05 -7.50406e-06 3.88863e-05)
(-3.53956e-05 -7.14068e-06 3.32607e-05)
(-3.96206e-05 -1.76993e-05 4.07236e-05)
(-2.96156e-05 -1.72969e-05 2.17351e-05)
(-4.59842e-05 -1.90489e-05 2.70817e-05)
(-5.90996e-05 -2.42098e-05 3.52292e-05)
(-5.20985e-05 -2.89881e-05 4.55881e-05)
(-3.72787e-05 -2.88171e-05 2.69258e-05)
(-4.33679e-05 -1.5028e-05 3.69368e-05)
(-4.87197e-05 -1.9375e-05 4.47529e-05)
(-5.46847e-05 -2.38372e-05 5.21804e-05)
(-6.01374e-05 -2.71308e-05 5.81939e-05)
(-6.8466e-05 -2.86538e-05 6.11929e-05)
(-6.96075e-05 -4.10938e-05 6.75014e-05)
(-0.000188514 -0.000168947 0.000229557)
(-0.00029315 -0.000289275 0.000407732)
(-0.000416407 -0.000482697 0.000671177)
(-0.000536585 -0.000718901 0.00101344)
(-0.000631668 -0.000956614 0.00130198)
(-0.0007377 -0.00117878 0.00168663)
(-0.000825317 -0.00130328 0.00203078)
(-0.000947689 -0.00195113 0.00306056)
(-0.00102967 -0.00267425 0.00419612)
(-0.00107343 -0.0034858 0.00547547)
(-0.00109942 -0.00434519 0.00683631)
(-0.00110327 -0.00515233 0.0081735)
(-0.00109853 -0.00596597 0.00956196)
(-1.20981e-05 1.18956e-05 0.000258768)
(-1.12832e-05 7.22738e-06 0.000263077)
(-8.49915e-06 3.27935e-06 0.000265449)
(-6.28057e-06 -1.43837e-06 0.000271387)
(-4.71707e-06 -7.71855e-06 0.000283498)
(-3.5661e-06 -1.0978e-05 0.000292785)
(-1.47548e-06 -1.66027e-05 0.000304784)
(-1.13262e-06 -1.92246e-05 0.000311262)
(8.81483e-07 -2.49261e-05 0.000324184)
(3.00817e-06 -2.24516e-05 0.000342136)
(4.47924e-06 -2.50848e-05 0.000359189)
(1.66081e-06 -2.95578e-05 0.000383753)
(3.53009e-06 -3.36616e-05 0.000399224)
(2.70369e-07 -3.959e-05 0.00043365)
(-6.18759e-06 -3.7652e-05 0.000363094)
(-8.06004e-06 -2.89082e-05 0.000262679)
(6.22093e-06 -3.24283e-05 0.000288088)
(9.66676e-06 -3.81549e-05 0.000307292)
(1.27402e-05 -3.9276e-05 0.000322606)
(1.21732e-05 -5.17964e-05 0.000337565)
(1.44266e-05 -5.15985e-05 0.000346544)
(1.97582e-05 -6.16017e-05 0.000382638)
(1.85176e-05 -7.25217e-05 0.000422028)
(2.72712e-05 -8.4993e-05 0.000464421)
(6.73833e-06 -6.21997e-05 0.000345183)
(-9.01392e-07 -4.43886e-05 0.000238816)
(1.25514e-05 -4.83595e-05 0.000262532)
(1.14556e-05 -5.13688e-05 0.000277745)
(6.93113e-06 -5.54715e-05 0.000285399)
(2.32705e-06 -6.49245e-05 0.000292427)
(4.96394e-07 -7.7956e-05 0.000336529)
(-4.92749e-06 -8.60675e-05 0.000344457)
(-7.79624e-06 -9.10676e-05 0.000355136)
(-1.43945e-05 -9.39675e-05 0.000359536)
(-1.67225e-05 -9.6891e-05 0.000367387)
(-2.57169e-05 -0.000104589 0.000374556)
(-2.78094e-05 -0.000106247 0.000374718)
(-3.64631e-05 -0.000108861 0.000372268)
(-3.90328e-05 -0.000111747 0.000368752)
(-4.83068e-05 -0.000117174 0.000362867)
(-4.98686e-05 -0.000119685 0.000351777)
(-5.71243e-05 -0.000123388 0.000339217)
(-5.61529e-05 -0.000118628 0.000305054)
(-5.8131e-05 -0.000116465 0.000299403)
(-5.84589e-05 -0.000124199 0.00028786)
(-6.2592e-05 -0.000131349 0.000276682)
(-5.68834e-05 -0.000122684 0.000247853)
(-4.14392e-05 -0.000114128 0.000225564)
(-2.08303e-05 -0.000100463 0.00019722)
(-6.59203e-05 -0.000177486 0.00032679)
(-8.18088e-05 -0.000177802 0.000312221)
(-6.60181e-05 -0.000169974 0.000276286)
(-6.72869e-05 -0.000176566 0.000306616)
(-6.84225e-05 -0.000185813 0.000296276)
(-6.43868e-05 -0.000180178 0.000290967)
(-6.20482e-05 -0.000175712 0.000290157)
(-6.45799e-05 -0.000173183 0.000291058)
(-6.21179e-05 -0.000176998 0.00027258)
(-6.24463e-05 -0.000158427 0.000245036)
(-6.87214e-05 -0.000152712 0.000258694)
(-5.04094e-05 -0.000161821 0.00024374)
(-5.31752e-05 -0.000140584 0.000218487)
(-5.6736e-05 -0.000128098 0.000213169)
(-5.24731e-05 -0.00012632 0.000207186)
(-4.97759e-05 -0.000119431 0.000194463)
(-4.46375e-05 -0.000102969 0.00017491)
(-3.80275e-05 -0.000103299 0.000193801)
(-1.70623e-05 -8.15008e-05 0.0001299)
(-1.94625e-05 -8.66519e-05 0.000143418)
(-2.08339e-05 -9.20959e-05 0.000151547)
(-2.30815e-05 -9.55696e-05 0.000153242)
(-1.0321e-05 -8.93455e-05 0.000143222)
(-4.33738e-05 -0.000116643 0.000200535)
(-2.74992e-05 -0.000108928 0.000184243)
(-1.5653e-05 -9.76281e-05 0.000165859)
(-4.86358e-05 -0.000124165 0.000216484)
(-1.72297e-05 -0.000106264 0.000179105)
(-5.43402e-05 -0.000130486 0.000227099)
(-1.93792e-05 -0.000104089 0.00019029)
(-5.3798e-05 -0.000130282 0.000231049)
(-1.97003e-05 -0.000103338 0.000184125)
(-4.11501e-05 -0.000120578 0.000220185)
(-5.92229e-05 -0.00013064 0.000248259)
(-6.71081e-05 -0.000140437 0.000277696)
(-6.70877e-05 -0.00013924 0.000296108)
(-6.90361e-05 -0.000126741 0.000311424)
(-6.80279e-05 -0.000137982 0.000315292)
(-8.44575e-05 -0.00014827 0.000379658)
(-4.63368e-05 -9.79282e-05 0.000267381)
(-5.93129e-05 -9.7938e-05 0.000269261)
(-5.16183e-05 -9.88163e-05 0.000242135)
(-5.29393e-05 -0.000108499 0.000271859)
(-6.59835e-05 -0.000104313 0.000268473)
(-5.48887e-05 -0.000102906 0.000234259)
(-5.56994e-05 -0.000113994 0.000258988)
(-5.63449e-05 -0.000116431 0.000254343)
(-5.53336e-05 -0.000117636 0.000247313)
(-5.19624e-05 -0.000110911 0.000246084)
(-5.62942e-05 -0.000111964 0.000236422)
(-6.0431e-05 -0.000110206 0.000257697)
(-4.8645e-05 -0.00011338 0.000240838)
(-5.20911e-05 -0.000112144 0.000216074)
(-5.39365e-05 -0.000102903 0.000217285)
(-5.47584e-05 -0.000106173 0.000215915)
(-5.31728e-05 -0.000103933 0.000209477)
(-5.33877e-05 -9.93247e-05 0.000201537)
(-5.1228e-05 -9.32685e-05 0.000190899)
(-5.07704e-05 -8.54784e-05 0.000178017)
(-4.71367e-05 -6.57085e-05 0.000156868)
(-4.39003e-05 -6.28532e-05 0.000181758)
(-2.17716e-05 -5.62234e-05 0.000124544)
(-2.43856e-05 -6.23874e-05 0.000137448)
(-2.44701e-05 -6.96271e-05 0.000146987)
(-2.49121e-05 -7.36842e-05 0.000153833)
(-2.3924e-05 -7.65787e-05 0.000157771)
(-2.40359e-05 -7.67373e-05 0.000160327)
(-2.36705e-05 -7.64533e-05 0.000159725)
(-1.28519e-05 -6.90448e-05 0.000147856)
(-4.15624e-05 -8.71502e-05 0.000196236)
(-2.30915e-05 -7.81436e-05 0.000173226)
(-1.33448e-05 -6.89781e-05 0.000151163)
(-4.39516e-05 -8.6487e-05 0.000198799)
(-1.50773e-05 -6.60597e-05 0.000164708)
(-4.3117e-05 -8.49266e-05 0.000202572)
(-1.51474e-05 -6.28413e-05 0.000160004)
(-3.20489e-05 -7.41307e-05 0.000192375)
(-4.4133e-05 -8.38217e-05 0.000219451)
(-1.32107e-05 -5.78767e-05 0.000171036)
(-2.87408e-05 -6.779e-05 0.000199622)
(-3.73116e-05 -7.60488e-05 0.00021982)
(-1.16062e-05 -5.39229e-05 0.00016994)
(-4.33892e-05 -8.32422e-05 0.000237014)
(-4.73393e-05 -7.83884e-05 0.000254518)
(-4.27035e-05 -7.72672e-05 0.000269218)
(-4.13029e-05 -7.47414e-05 0.000278456)
(-3.56014e-05 -7.29822e-05 0.000286127)
(-3.30641e-05 -7.04589e-05 0.000289824)
(-2.79147e-05 -7.04834e-05 0.000295082)
(-2.53093e-05 -6.76533e-05 0.000295641)
(-1.95134e-05 -6.5233e-05 0.00029586)
(-1.72698e-05 -6.25287e-05 0.000292775)
(-1.24897e-05 -6.1265e-05 0.000290134)
(-9.73558e-06 -5.75957e-05 0.000285156)
(-5.77701e-06 -5.59572e-05 0.000276216)
(-6.46843e-06 -3.66772e-05 0.000252374)
(-4.29719e-06 -5.82363e-05 0.000306696)
(-8.54031e-06 -4.15438e-05 0.000211639)
(-1.61525e-07 -4.53626e-05 0.000227636)
(-2.74137e-06 -4.77532e-05 0.000232586)
(-4.60833e-06 -5.00717e-05 0.000235105)
(-7.37787e-06 -5.07718e-05 0.000235915)
(-8.68737e-06 -5.28714e-05 0.000235356)
(-1.16882e-05 -5.37237e-05 0.000233813)
(-1.34961e-05 -5.59144e-05 0.000230918)
(-1.66082e-05 -5.59955e-05 0.000225635)
(-1.836e-05 -5.74672e-05 0.000220675)
(-2.14434e-05 -5.80448e-05 0.000213165)
(-2.26393e-05 -5.9565e-05 0.000204828)
(-2.52938e-05 -5.99849e-05 0.000194938)
(-3.88791e-05 -7.89304e-05 0.000251716)
(-3.58561e-05 -8.14993e-05 0.000263323)
(-3.49447e-05 -7.98636e-05 0.000274434)
(-2.98881e-05 -7.86291e-05 0.000285279)
(-2.84895e-05 -7.75222e-05 0.000296437)
(-2.37614e-05 -7.79441e-05 0.000304517)
(-2.23992e-05 -7.4127e-05 0.000311334)
(-1.83205e-05 -7.42812e-05 0.000315418)
(-1.70243e-05 -7.00743e-05 0.000317519)
(-1.26436e-05 -6.99092e-05 0.000318647)
(-1.10429e-05 -6.58801e-05 0.000317253)
(-7.01308e-06 -6.31351e-05 0.000314958)
(-3.20739e-06 -5.36514e-05 0.000293778)
(1.20564e-06 -4.98477e-05 0.000284198)
(-1.62602e-06 -6.407e-05 0.000349574)
(1.16568e-05 -8.34937e-05 0.000426285)
(5.01765e-06 -8.18833e-05 0.000391898)
(9.45367e-06 -7.68532e-05 0.000384108)
(1.06565e-05 -6.65473e-05 0.000344897)
(1.13117e-05 -5.69372e-05 0.000313675)
(1.04256e-05 -7.00776e-05 0.000388602)
(1.11174e-05 -5.76339e-05 0.000361353)
(1.27356e-05 -4.84663e-05 0.000341715)
(3.71831e-06 -3.09393e-05 0.000312063)
(5.40207e-06 -5.30017e-05 0.000397275)
(-7.87548e-08 -3.886e-05 0.000269736)
(1.75662e-05 -4.22424e-05 0.000295591)
(1.1135e-05 -5.43689e-05 0.000307454)
(1.98117e-05 -7.79065e-05 0.000473449)
(2.55721e-06 -5.43622e-05 0.000332846)
(-4.14846e-06 -3.97357e-05 0.000237753)
(6.36744e-06 -4.1201e-05 0.000256792)
(5.93229e-06 -4.76532e-05 0.000268827)
(2.88024e-06 -4.87973e-05 0.000274031)
(5.47904e-08 -5.76295e-05 0.000328751)
(2.19917e-06 -5.7489e-05 0.00032255)
(3.00457e-06 -4.99291e-05 0.00030037)
(1.15997e-06 -3.30916e-05 0.000279459)
(4.09304e-07 -0.000146051 0.000784871)
(2.68307e-05 -0.000292446 0.00143899)
(2.86899e-06 -0.000252594 0.00136184)