/*--------------------------------*- C++ -*----------------------------------*\
| =========                 |                                                 |
| \\      /  F ield         | OpenFOAM: The Open Source CFD Toolbox           |
|  \\    /   O peration     | Version:  5.0                                   |
|   \\  /    A nd           | Web:      www.OpenFOAM.org                      |
|    \\/     M anipulation  |                                                 |
\*---------------------------------------------------------------------------*/
FoamFile
{
    version     2.0;
    format      ascii;
    class       volVectorField;
    location    "60";
    object      wallShearStressRest;
}
// * * * * * * * * * * * * * * * * * * * * * * * * * * * * * * * * * * * * * //

dimensions      [1 -1 -2 0 0 0 0];

internalField   uniform (0 0 0);

boundaryField
{
    Wall_Aorta
    {
        type            calculated;
        value           nonuniform List<vector> 
8535
(
(-0.00133728 -0.00132024 0.00554943)
(-0.00156052 -0.00059237 0.00547396)
(-0.00224861 -0.00151159 0.00449996)
(-0.001305 -0.0012602 0.00569679)
(-0.00167654 -0.000439561 0.00514723)
(-0.00221005 -0.00147925 0.00489098)
(-0.00195353 -0.00110544 0.00611664)
(-0.00191295 -0.0011896 0.00582909)
(-0.00199886 -0.000873649 0.00583377)
(-0.00143786 -0.00139272 0.00642149)
(-0.001852 -0.000544044 0.00599557)
(-0.00247923 -0.00165705 0.00567943)
(-0.00148442 -0.00114324 0.00626257)
(-0.00182576 -0.000442492 0.00623955)
(-0.00243381 -0.00128324 0.00535524)
(-0.00150256 -0.00123303 0.00664786)
(-0.00187274 -0.000479235 0.00670514)
(-0.00253867 -0.00147324 0.00573248)
(-0.00227642 -0.000964131 0.00696765)
(-0.00225622 -0.000936463 0.00665277)
(-0.00202941 -0.00122948 0.00635174)
(-0.00218645 -0.000947746 0.00658331)
(-0.0016233 -0.00118992 0.00690416)
(-0.00201745 -0.000454158 0.00694374)
(-0.00268037 -0.00133258 0.00602776)
(-0.00241546 -0.000974659 0.00715396)
(-0.00167804 -0.0013817 0.00706762)
(-0.00209146 -0.000728331 0.00658646)
(-0.00267903 -0.00160969 0.00626476)
(-0.00224262 -0.0014731 0.00721215)
(-0.00234129 -0.00126657 0.00742649)
(-0.00167568 -0.00147341 0.00746837)
(-0.00207325 -0.000557708 0.00702211)
(-0.00270066 -0.00161214 0.00704537)
(-0.00252322 -0.00123468 0.00792927)
(-0.00252173 -0.00127286 0.00817012)
(-0.0022943 -0.00138006 0.00792027)
(-0.00172266 -0.00137652 0.00818142)
(-0.0021268 -0.000545413 0.00809785)
(-0.00289088 -0.00160321 0.00736542)
(-0.00228311 -0.00100875 0.00727949)
(-0.00163729 -0.00127907 0.00734386)
(-0.00196675 -0.000571845 0.00727464)
(-0.00275411 -0.00148046 0.00637793)
(-0.00175438 -0.00134657 0.00763049)
(-0.00218904 -0.000769741 0.00728008)
(-0.00291547 -0.00180588 0.00683131)
(-0.00249655 -0.00125635 0.00719161)
(-0.00160842 -0.00124059 0.00712104)
(-0.00203938 -0.000447397 0.00730724)
(-0.00277188 -0.00139626 0.00648082)
(-0.00170703 -0.00139919 0.00763315)
(-0.00225123 -0.000637755 0.00720166)
(-0.00292013 -0.00159574 0.00683115)
(-0.00246665 -0.00100356 0.00776662)
(-0.00241891 -0.000947458 0.00747449)
(-0.00189259 -0.00133186 0.00835832)
(-0.0023508 -0.000618854 0.00847139)
(-0.0029983 -0.00145586 0.00760898)
(-0.00241692 -0.00139166 0.00788118)
(-0.00250979 -0.0012602 0.0079183)
(-0.00263917 -0.00118736 0.00837518)
(-0.00266509 -0.00113912 0.00855456)
(-0.00239511 -0.00132664 0.00766292)
(-0.00257047 -0.00124256 0.008048)
(-0.00165462 -0.00124223 0.00775533)
(-0.0022944 -0.000549975 0.00749002)
(-0.00299682 -0.00167546 0.00726106)
(-0.00287013 -0.00102279 0.00859838)
(-0.00247209 -0.00131392 0.00810493)
(-0.00270835 -0.00105981 0.00824865)
(-0.00169191 -0.00112699 0.00774686)
(-0.00211805 -0.00044187 0.00823195)
(-0.00271783 -0.00166423 0.00752765)
(-0.00198953 -0.00145552 0.00876881)
(-0.00248695 -0.000854039 0.00849757)
(-0.00312852 -0.00178402 0.00813284)
(-0.0027734 -0.00104638 0.0086108)
(-0.00199666 -0.0012126 0.00881932)
(-0.00249313 -0.000587335 0.00853617)
(-0.00328861 -0.0017816 0.00811599)
(-0.0018691 -0.0013591 0.00831021)
(-0.00231727 -0.000683276 0.00763166)
(-0.00298677 -0.00159097 0.00764405)
(-0.00265082 -0.00102502 0.0087175)
(-0.00252943 -0.001329 0.00842868)
(-0.00264279 -0.00122739 0.00847605)
(-0.00254784 -0.00144644 0.00861151)
(-0.00279694 -0.00132221 0.00924225)
(-0.00180308 -0.0013461 0.00885018)
(-0.00235351 -0.000612072 0.00825676)
(-0.00300962 -0.00162648 0.00831857)
(-0.00275696 -0.00130027 0.0089992)
(-0.00283988 -0.00108494 0.00916161)
(-0.00202506 -0.00133441 0.00934242)
(-0.00255971 -0.000537048 0.00878396)
(-0.00323312 -0.00155017 0.00876023)
(-0.00293841 -0.000909776 0.00946006)
(-0.00290027 -0.000977804 0.00922927)
(-0.00163611 -0.00116729 0.00871668)
(-0.00226573 -0.000596274 0.00874268)
(-0.00318216 -0.0015713 0.0079681)
(-0.00169917 -0.001212 0.00872508)
(-0.00245488 -0.000545044 0.00846738)
(-0.00319458 -0.0016926 0.00847063)
(-0.00256381 -0.00124472 0.00842775)
(-0.00248601 -0.00130014 0.00879089)
(-0.00281018 -0.00104102 0.0089226)
(-0.00250983 -0.00106439 0.0092891)
(-0.00191666 -0.00130677 0.00872507)
(-0.00231074 -0.000626416 0.00871609)
(-0.00321213 -0.00163152 0.00800497)
(-0.00279859 -0.00100245 0.00894873)
(-0.00290265 -0.00116225 0.00833229)
(-0.00186458 -0.00142673 0.00888128)
(-0.0025538 -0.000534712 0.00835471)
(-0.00331652 -0.00166787 0.00831755)
(-0.0017829 -0.00129888 0.00848872)
(-0.00235467 -0.000548542 0.00870572)
(-0.0031886 -0.00148101 0.00802313)
(-0.00262035 -0.00101358 0.00879689)
(-0.00274736 -0.00103745 0.00904287)
(-0.00292883 -0.00103347 0.00944561)
(-0.00261643 -0.00127894 0.00863393)
(-0.0028182 -0.00117701 0.00900126)
(-0.00190731 -0.00121011 0.0090175)
(-0.00246131 -0.000445681 0.00918415)
(-0.00320956 -0.00134463 0.00856688)
(-0.00294752 -0.000958406 0.00937244)
(-0.00194694 -0.00132303 0.00992268)
(-0.00276889 -0.000487359 0.00955639)
(-0.0033688 -0.00147915 0.00947981)
(-0.00278897 -0.00120408 0.00909844)
(-0.00289444 -0.00122327 0.00950917)
(-0.00189685 -0.00131535 0.00913222)
(-0.00260377 -0.000394564 0.00881287)
(-0.0033209 -0.00159999 0.00884)
(-0.00276021 -0.00119362 0.00907756)
(-0.00299306 -0.00119732 0.0095453)
(-0.00309924 -0.000895541 0.0100057)
(-0.00177107 -0.0012564 0.00908536)
(-0.00235952 -0.00046054 0.00906515)
(-0.00322774 -0.00141028 0.00857616)
(-0.00183186 -0.00111278 0.00907863)
(-0.00258618 -0.00043705 0.00883285)
(-0.00332925 -0.0016 0.00860201)
(-0.00282527 -0.0011076 0.00869658)
(-0.00263795 -0.000895683 0.0093482)
(-0.0013789 -0.00107556 0.0089548)
(-0.00212785 -0.000466342 0.00901244)
(-0.00292108 -0.00144038 0.008469)
(-0.0015946 -0.00120665 0.00904792)
(-0.00244463 -0.000519205 0.0086828)
(-0.00322386 -0.00158418 0.00856719)
(-0.00258457 -0.00121376 0.00895096)
(-0.00273372 -0.00119664 0.00933903)
(-0.00293944 -0.000996171 0.00952978)
(-0.00285729 -0.000935721 0.00980571)
(-0.00301198 -0.000838073 0.0100533)
(-0.00159557 -0.001195 0.00942054)
(-0.00237286 -0.000393746 0.0094239)
(-0.0030677 -0.00125811 0.00889339)
(-0.00145705 -0.00113636 0.00994178)
(-0.00224941 -0.000526624 0.00978444)
(-0.00308911 -0.0013812 0.00916333)
(-0.00238293 -0.00128323 0.00917142)
(-0.00270508 -0.00104603 0.00924411)
(-0.00245222 -0.00101828 0.00996125)
(-0.0026447 -0.000827647 0.00990598)
(-0.00284019 -0.000931045 0.00940498)
(-0.00276319 -0.00114344 0.00972801)
(-0.0030534 -0.00117813 0.0102789)
(-0.00161808 -0.00100527 0.00923502)
(-0.00255061 -0.000350234 0.0092022)
(-0.00328413 -0.00149366 0.0093058)
(-0.00272154 -0.00104651 0.00903586)
(-0.00255924 -0.00117995 0.00958135)
(-0.00297418 -0.000971017 0.00988935)
(-0.00270329 -0.000898031 0.0100924)
(-0.00147638 -0.00115828 0.00953861)
(-0.00235283 -0.000464285 0.00896507)
(-0.00319886 -0.00143418 0.00939854)
(-0.00254473 -0.000886105 0.00990573)
(-0.00231617 -0.000936233 0.00991378)
(-0.00271622 -0.00107325 0.0096617)
(-0.00248097 -0.00116444 0.00990767)
(-0.00241133 -0.00106564 0.00961404)
(-0.00240505 -0.000860269 0.0108929)
(-0.00238654 -0.000715819 0.010828)
(-0.00120162 -0.000992301 0.0112008)
(-0.00203269 -0.000322392 0.0108372)
(-0.00297337 -0.0011064 0.0104745)
(-0.0012228 -0.000925564 0.0109884)
(-0.00210569 -0.000285996 0.0101633)
(-0.00290275 -0.00110723 0.0107392)
(-0.00241875 -0.000621528 0.0112711)
(-0.00133751 -0.00108377 0.00241771)
(-0.00131009 -0.000320289 0.00229233)
(-0.00143013 -0.00137954 0.0014295)
(-0.00141228 -5.52261e-05 0.00206913)
(-0.00173421 -0.00106817 0.00137948)
(-0.00135202 -0.000645751 0.00190925)
(-0.00132529 -0.000132284 0.00190137)
(-0.0013572 -0.000892925 0.000962594)
(-0.00148849 4.77603e-05 0.00173506)
(-0.00168689 -0.000719695 0.000987151)
(-0.00121699 -0.000992012 0.00230444)
(-0.0013534 -0.000147792 0.00212913)
(-0.00149168 -0.00135053 0.00136128)
(-0.00123023 -0.000753132 0.00200112)
(-0.0013988 -9.20603e-05 0.00194476)
(-0.00140561 -0.00101161 0.00100672)
(-0.00107379 -0.00101505 0.00228102)
(-0.0012418 -0.000156828 0.00220827)
(-0.0013618 -0.00123701 0.0013259)
(-0.00130449 -0.00071739 0.00195923)
(-0.00129386 -0.000121286 0.00192674)
(-0.00136809 -0.00101179 0.00106314)
(-0.00143289 7.26406e-05 0.00177331)
(-0.00171706 -0.000832167 0.00112676)
(-0.00227592 -0.00134352 0.00319778)
(-0.0022796 -0.0010731 0.00326462)
(-0.00211593 -0.00192767 0.00231624)
(-0.00203741 -0.00126421 0.00314286)
(-0.00214081 -0.000833162 0.00340216)
(-0.00231487 -0.00188707 0.0020949)
(-0.00215955 -0.00109067 0.00331768)
(-0.000969905 -0.00123061 0.0027345)
(-0.00103903 -0.000539348 0.00262692)
(-0.00123547 -0.00141336 0.00158316)
(-0.00121852 -0.00116781 0.00308665)
(-0.00128572 -0.000576275 0.00303749)
(-0.00152225 -0.00142298 0.00201578)
(-0.00109232 -0.00125508 0.0029626)
(-0.00124133 -0.000658096 0.00309453)
(-0.00152294 -0.00159289 0.00226429)
(-0.00110649 -0.0011953 0.00295597)
(-0.00117646 -0.000547211 0.00287794)
(-0.00140756 -0.00143843 0.00185953)
(-0.00106149 -0.00131061 0.00303435)
(-0.00114186 -0.000652492 0.00297525)
(-0.00135421 -0.00155019 0.00200407)
(-0.00121926 -0.00122749 0.00313769)
(-0.00126357 -0.000610843 0.00307609)
(-0.00154336 -0.00155917 0.00214225)
(-0.00123961 -0.00119355 0.00266854)
(-0.00140626 -0.000628121 0.00287989)
(-0.00165155 -0.0015129 0.00223623)
(-0.00118784 -0.0011867 0.00264534)
(-0.00141201 -0.000589856 0.00274674)
(-0.00160688 -0.00150463 0.00230456)
(-0.00160808 -0.00119757 0.00324069)
(-0.00152422 -0.000898464 0.00314692)
(-0.00158877 -0.00116446 0.00328963)
(-0.00150414 -0.000911914 0.0033077)
(-0.00117827 -0.00114331 0.002831)
(-0.00130692 -0.000560203 0.00271589)
(-0.00162666 -0.00150452 0.0023284)
(-0.00127087 -0.00109557 0.0031143)
(-0.00147416 -0.00114725 0.00329634)
(-0.00143934 -0.000847702 0.00325234)
(-0.00119323 -0.00120822 0.00352723)
(-0.0012906 -0.000553346 0.00342046)
(-0.0016149 -0.00153428 0.00231277)
(-0.00148514 -0.000675358 0.00189507)
(-0.00153643 -0.000207793 0.00201199)
(-0.00151051 -0.00100517 0.000921687)
(-0.00130882 -0.000721111 0.0019307)
(-0.00130486 -0.000231225 0.00183935)
(-0.0013627 -0.00103473 0.00111871)
(-0.00124317 -0.000733556 0.00215176)
(-0.00135255 -0.000231467 0.00215488)
(-0.00147909 -0.00103012 0.00112807)
(-0.0013706 -0.000324041 0.00192496)
(-0.00163492 -0.000784415 0.00207869)
(-0.00172008 -0.000429087 0.00209805)
(-0.00159384 -0.00118768 0.00132479)
(-0.00154117 -0.000139296 0.00196316)
(-0.00169553 -0.000922845 0.00123368)
(-0.00146633 -0.000763497 0.00209374)
(-0.00165368 -0.000308853 0.00225852)
(-0.00169354 -0.00115279 0.00109255)
(-0.00174668 -0.00047731 0.00219616)
(-0.00114799 -0.000821304 0.00198711)
(-0.00108007 -0.000250278 0.00183296)
(-0.00119239 -0.0010258 0.00107649)
(-0.000885407 -0.00109193 0.00223932)
(-0.00104018 -0.000385663 0.00220261)
(-0.00120457 -0.00140959 0.00131386)
(-0.00109672 -0.000862597 0.0021514)
(-0.00108667 -0.000285156 0.00206641)
(-0.00140398 -0.00084186 0.00121685)
(-0.00104123 -0.00123481 0.00237635)
(-0.00106207 -0.000449002 0.00228474)
(-0.00118525 -0.00153881 0.00144052)
(-0.00151161 -0.00119947 0.00171196)
(-0.00101567 -0.000931258 0.00215215)
(-0.00113867 -0.000291148 0.00209827)
(-0.00127781 -0.00116888 0.00121205)
(-0.00105173 -0.000919771 0.00240784)
(-0.00114572 -0.000289305 0.0023603)
(-0.00129184 -0.00114877 0.00134559)
(-0.00106767 -0.000837502 0.00221603)
(-0.0011282 -0.000273806 0.00222745)
(-0.00135961 -0.00112377 0.00125114)
(-0.00113836 -0.00035574 0.00193057)
(-0.00117128 -0.00084491 0.00222603)
(-0.00108838 -0.000321043 0.00203819)
(-0.00121903 -0.00109335 0.00130255)
(-0.0012515 -0.000181952 0.00207663)
(-0.00155096 -0.000938411 0.00131271)
(-0.000948972 -0.000928406 0.00221346)
(-0.00109528 -0.000305302 0.00222766)
(-0.00120524 -0.00117931 0.00125566)
(-0.000886553 -0.00111099 0.00239053)
(-0.00100161 -0.000398436 0.00229313)
(-0.00115668 -0.00130786 0.0013327)
(-0.00100916 -0.00106146 0.00256721)
(-0.00111138 -0.000433074 0.00252052)
(-0.00127478 -0.00127346 0.00146721)
(-0.00115701 -0.0006367 0.00181725)
(-0.00137646 -2.44771e-05 0.00181237)
(-0.00140069 -0.000925444 0.000997819)
(-0.00119723 -0.000611725 0.00183094)
(-0.00133829 -0.000122219 0.00186796)
(-0.00138886 -0.00083009 0.000847747)
(-0.00125721 -7.32366e-05 0.00179542)
(-0.00148813 -0.000770252 0.00107135)
(-0.0013331 -0.000577351 0.00173671)
(-0.00133315 -0.0001324 0.00163459)
(-0.00134249 -0.00088741 0.00101097)
(-0.00151743 -8.93673e-05 0.00179174)
(-0.00178329 -0.000781135 0.00108027)
(-0.00138719 -0.000220538 0.00168769)
(-0.00116449 -3.95952e-05 0.001921)
(-0.00148014 -0.0008725 0.0012783)
(-0.00116234 -0.000722163 0.00196351)
(-0.00138295 -0.000171456 0.00196409)
(-0.001471 -0.00101979 0.00100667)
(-0.00122669 -0.000874155 0.00236553)
(-0.00143129 -0.000360588 0.00235467)
(-0.00151261 -0.00116934 0.00122696)
(-0.00136675 -0.000959315 0.00273028)
(-0.00143025 -0.000429593 0.00274913)
(-0.00160342 -0.00129521 0.00161477)
(-0.00132436 -0.00100965 0.0027568)
(-0.0014721 -0.000459733 0.00270417)
(-0.00160937 -0.00134053 0.00159514)
(-0.0015106 -0.00108871 0.00298852)
(-0.00145652 -0.000552861 0.00279825)
(-0.00150647 -0.00143793 0.00193992)
(-0.00143187 -0.00113401 0.00316135)
(-0.00160029 -0.000639256 0.00309745)
(-0.00171738 -0.00158507 0.00222451)
(-0.0017335 -0.000818344 0.00309508)
(-0.00132939 -0.00108757 0.00299)
(-0.001461 -0.000562765 0.00295736)
(-0.00167822 -0.00145953 0.0018933)
(-0.00137268 -0.00118777 0.00328677)
(-0.00145446 -0.000594908 0.00329168)
(-0.00164993 -0.00155371 0.00222142)
(-0.00136163 -0.00115428 0.00326498)
(-0.00146376 -0.000638869 0.00324023)
(-0.0017051 -0.0015112 0.00209352)
(-0.00136016 -0.00108866 0.00300945)
(-0.00148547 -0.000511983 0.00304129)
(-0.00164933 -0.00147941 0.00198303)
(-0.00158475 -0.000916849 0.00259872)
(-0.00180207 -0.000438424 0.00278693)
(-0.0018565 -0.0013672 0.00153396)
(-0.0017399 -0.000912496 0.00241519)
(-0.00179101 -0.000500633 0.00241481)
(-0.00163489 -0.00130522 0.00150285)
(-0.0019753 -0.000429557 0.00263079)
(-0.00216177 -0.00124163 0.00170583)
(-0.00211845 -0.00116676 0.00293916)
(-0.00210679 -0.000686118 0.00315607)
(-0.00206606 -0.00168723 0.00181033)
(-0.00191331 -0.00061883 0.00264694)
(-0.00135328 -0.000869904 0.00232702)
(-0.00136755 -0.000379818 0.0022264)
(-0.00136768 -0.00116199 0.00138797)
(-0.00162033 -0.000244387 0.00233803)
(-0.00179537 -0.00104244 0.00146426)
(-0.00146015 -0.000520937 0.00243488)
(-0.00179059 -0.00103352 0.00283349)
(-0.00188348 -0.000631219 0.00282426)
(-0.00179722 -0.00154871 0.00197749)
(-0.00165528 -0.000318824 0.00276852)
(-0.00193469 -0.00121372 0.00194651)
(-0.00180553 -0.00112642 0.00324875)
(-0.0018935 -0.000594414 0.00327043)
(-0.00206271 -0.00160051 0.00192736)
(-0.0019442 -0.000732606 0.00299286)
(-0.00215448 -0.000487289 0.0030447)
(-0.00234874 -0.00144606 0.00214111)
(-0.0011785 -0.000942798 0.00253602)
(-0.0012438 -0.000454258 0.00239511)
(-0.00142337 -0.00123818 0.00154923)
(-0.00112289 -0.00105623 0.00279254)
(-0.00118936 -0.000435702 0.00273212)
(-0.00141177 -0.00130512 0.00172851)
(-0.00122516 -0.00107687 0.00287514)
(-0.00128759 -0.000550531 0.00269837)
(-0.0014987 -0.001357 0.00187132)
(-0.00132146 -0.00071508 0.00263177)
(-0.00126784 -0.000588472 0.00225778)
(-0.00137145 -0.00079108 0.00287845)
(-0.00144637 -0.00110594 0.00216653)
(-0.00144697 -0.000367397 0.00195842)
(-0.00147788 -0.0015857 0.00138399)
(-0.00144813 -0.000388708 0.00214712)
(-0.00168563 -0.0014176 0.00139817)
(-0.00171059 -0.000269013 0.00213571)
(-0.00185693 -0.00144518 0.00137347)
(-0.00181042 -0.00142899 0.00243589)
(-0.00195258 -0.000753827 0.00263131)
(-0.0017599 -0.00210113 0.00164777)
(-0.00182046 -0.000818575 0.00272611)
(-0.00193952 -0.00206157 0.00181301)
(-0.00175826 -0.00108892 0.00186174)
(-0.00192377 -0.000537574 0.00188343)
(-0.00171927 -0.00165134 0.0012711)
(-0.00199991 -0.000723449 0.00232425)
(-0.00203721 -0.00172797 0.00156862)
(-0.00180843 -0.000867422 0.00284973)
(-0.00184418 -0.00216552 0.00190338)
(-0.00205862 -0.000963866 0.00299616)
(-0.00208337 -0.00249029 0.00208899)
(-0.00204627 -0.000742051 0.00257421)
(-0.00207304 -0.0019076 0.0016719)
(-0.00209579 -0.000844833 0.00274388)
(-0.00212545 -0.00202367 0.00168594)
(-0.00200302 -0.000757684 0.00183637)
(-0.00207411 -0.000310569 0.00177729)
(-0.00192276 -0.00114861 0.000960903)
(-0.00210413 -0.00021268 0.00188603)
(-0.00217571 -0.000892565 0.000999859)
(-0.00235344 -6.05753e-05 0.00180596)
(-0.0023969 -0.000978822 0.00104821)
(-0.00242579 -0.000952053 0.00168433)
(-0.00248328 -0.000534138 0.00172353)
(-0.00222911 -0.00155551 0.000990702)
(-0.0025371 -0.000588229 0.00206379)
(-0.00257455 -0.00152147 0.00132515)
(-0.00263615 -0.00104784 0.00178301)
(-0.00268725 -0.000612399 0.00178716)
(-0.00242391 -0.00158183 0.00102481)
(-0.00246284 -0.000495166 0.00181319)
(-0.00167604 -0.000677506 0.00172927)
(-0.00173466 -0.000176701 0.00183233)
(-0.00155699 -0.00102417 0.000845234)
(-0.00170109 -6.8035e-05 0.00179817)
(-0.00187111 -0.000904803 0.00092295)
(-0.00137495 -0.00091327 0.00215898)
(-0.00155901 -0.000211931 0.00217307)
(-0.00154952 -0.00128929 0.00119538)
(-0.00146079 -0.000379404 0.00185898)
(-0.00149563 -0.000729239 0.00192646)
(-0.00150315 -0.000122271 0.00194806)
(-0.00151637 -0.00102337 0.00100245)
(-0.00161626 8.60354e-06 0.00178189)
(-0.00178225 -0.000888721 0.00106537)
(-0.00151139 -0.000763563 0.00177645)
(-0.00160392 -0.000165895 0.00179884)
(-0.00149799 -0.00116473 0.000833872)
(-0.00177023 -9.68445e-05 0.00179296)
(-0.0019577 -0.00111056 0.0011042)
(-0.00148978 -0.000580072 0.00172946)
(-0.00149984 -5.39682e-05 0.00177556)
(-0.00146231 -0.000879582 0.000898838)
(-0.00167093 4.3014e-05 0.00170791)
(-0.0018194 -0.000793071 0.00102833)
(-0.00155218 -0.000599333 0.00168807)
(-0.00162738 -0.000176518 0.00168796)
(-0.00149073 -0.000915401 0.000949172)
(-0.00178406 -0.000148888 0.00185178)
(-0.0019354 -0.000847813 0.00105147)
(-0.00175061 -0.000646986 0.00165199)
(-0.00183233 -0.000208197 0.0016551)
(-0.00168529 -0.00103953 0.000966506)
(-0.00186569 -0.000155601 0.00179784)
(-0.00195811 -0.000873357 0.00104203)
(-0.00185132 -0.000290314 0.001764)
(-0.00209471 -0.00106492 0.00193882)
(-0.00218916 -0.000548485 0.00208942)
(-0.00198862 -0.00170219 0.00111432)
(-0.00213351 -0.000856038 0.00163934)
(-0.00223323 -0.000447698 0.00170127)
(-0.00197903 -0.00143106 0.00104098)
(-0.00200976 -3.95342e-05 0.00177442)
(-0.00205808 -0.00106759 0.00103707)
(-0.00217787 -0.000590702 0.0022689)
(-0.00222936 -0.00166804 0.00146079)
(-0.00228186 -0.000694238 0.00246495)
(-0.00229867 -0.00182952 0.00159722)
(-0.00231284 -0.000557736 0.00203411)
(-0.00234176 -0.00146703 0.00132654)
(-0.00242668 -0.000603124 0.00225601)
(-0.00246856 -0.00166491 0.00141939)
(-0.00187613 -0.000488285 0.00186846)
(-0.00203982 -5.78227e-06 0.00169395)
(-0.0021643 -0.000905387 0.000949208)
(-0.00217849 -0.000353676 0.00173708)
(-0.00188514 -0.00251166 0.00304864)
(-0.00206371 -0.0016411 0.00304583)
(-0.00166357 -0.00329336 0.00232855)
(-0.0020459 -0.0017182 0.00349031)
(-0.00202537 -0.00328004 0.00254716)
(-0.00213996 -0.00167817 0.00362286)
(-0.00219641 -0.00346305 0.00260737)
(-0.00231385 -0.00182652 0.00374)
(-0.00233492 -0.00366888 0.0027508)
(-0.00237608 -0.00184341 0.00242076)
(-0.00242101 -0.00104757 0.00223594)
(-0.00210042 -0.00235988 0.00143698)
(-0.00241049 -0.000941862 0.00236394)
(-0.00242253 -0.00207365 0.00155754)
(-0.00215697 -0.00215061 0.00276762)
(-0.00223402 -0.00127002 0.00258761)
(-0.00192965 -0.00282944 0.00185862)
(-0.00196083 -0.00168329 0.00316642)
(-0.00234037 -0.000863415 0.00280387)
(-0.00230685 -0.00223538 0.00189477)
(-0.00220595 -0.00145238 0.00275869)
(-0.00224019 -0.00125869 0.00286409)
(-0.00224856 -0.00263579 0.00202096)
(-0.00231228 -0.00114475 0.00281541)
(-0.00234783 -0.00265319 0.00196927)
(-0.00241916 -0.00188126 0.00375541)
(-0.00245798 -0.00381536 0.00278822)
(-0.00250998 -0.0019706 0.00374881)
(-0.00249168 -0.00388427 0.00278045)
(-0.00262994 -0.0020663 0.00374442)
(-0.0025681 -0.00389328 0.00278263)
(-0.0027012 -0.00219423 0.00367903)
(-0.00262544 -0.00398168 0.00274931)
(-0.00246195 -0.00084003 0.00225134)
(-0.00245772 -0.00202035 0.00137952)
(-0.00250367 -0.000886924 0.00220352)
(-0.00251734 -0.00209672 0.00133155)
(-0.00257814 -0.00101911 0.00218162)
(-0.00259754 -0.00225135 0.00135429)
(-0.00265059 -0.00131117 0.0022278)
(-0.00264963 -0.00243888 0.00141447)
(-0.00241766 -0.00114329 0.00275452)
(-0.00244181 -0.00266176 0.00189118)
(-0.00253847 -0.00123161 0.00274186)
(-0.00250446 -0.00275697 0.00186852)
(-0.00265934 -0.0013758 0.00275776)
(-0.00265292 -0.0029196 0.00191645)
(-0.00275714 -0.0015578 0.00275172)
(-0.00264597 -0.00304041 0.00192539)
(-0.00256933 -0.000575709 0.00215778)
(-0.00262004 -0.00156885 0.00133626)
(-0.00254831 -0.000578916 0.00219144)
(-0.00262986 -0.00162592 0.00136712)
(-0.00260667 -0.000577791 0.00198247)
(-0.00267219 -0.00147617 0.0012645)
(-0.00259518 -0.000566569 0.00204338)
(-0.00266549 -0.00151749 0.00121353)
(-0.00251973 -0.000613188 0.00213517)
(-0.00263618 -0.00163398 0.00126191)
(-0.00253758 -0.000666642 0.00211581)
(-0.00258866 -0.00163852 0.00122955)
(-0.00254346 -0.00061141 0.00199656)
(-0.00257726 -0.00154776 0.00113888)
(-0.00249171 -0.00064539 0.00196801)
(-0.00253864 -0.00159283 0.00112589)
(-0.00255141 -0.000749612 0.0020856)
(-0.00253653 -0.00168229 0.00115525)
(-0.00257211 -0.000855418 0.00207628)
(-0.00252287 -0.00180126 0.00112174)
(-0.00244566 -0.000719806 0.00193747)
(-0.00249616 -0.00169803 0.00111543)
(-0.00247599 -0.000841976 0.00199789)
(-0.00247896 -0.00185311 0.00114224)
(-0.00257482 -0.00095411 0.00207486)
(-0.0025117 -0.00192116 0.00112904)
(-0.00262781 -0.00109982 0.00215778)
(-0.00250942 -0.00211096 0.00123928)
(-0.00248414 -0.0010098 0.00204274)
(-0.00245544 -0.00200632 0.00116941)
(-0.00250484 -0.00117498 0.0021347)
(-0.00244326 -0.00217431 0.00124883)
(-0.00232576 -0.000715853 0.00257381)
(-0.00239431 -0.00190062 0.00163042)
(-0.00251141 -0.000687327 0.00256669)
(-0.00257581 -0.00204484 0.00178037)
(-0.00250367 -0.00067291 0.00240569)
(-0.00254343 -0.00175465 0.00148094)
(-0.00248382 -0.000694047 0.00238282)
(-0.0025439 -0.00170559 0.00141175)
(-0.00250095 -0.00152445 0.00204146)
(-0.00259443 -0.000892682 0.00182081)
(-0.00225645 -0.00197582 0.00112061)
(-0.00240538 -0.00113311 0.00239495)
(-0.00260642 -0.000658086 0.00227341)
(-0.00266827 -0.00178985 0.00146939)
(-0.00246705 -0.00105265 0.0022162)
(-0.00249933 -0.00090692 0.00168057)
(-0.00250137 -0.00180393 0.00129069)
(-0.00254913 -0.000961082 0.0016307)
(-0.00250024 -0.00186653 0.00118611)
(-0.00249259 -0.00107539 0.00211364)
(-0.00254119 -0.00116484 0.00210643)
(-0.00261854 -0.00109974 0.00163755)
(-0.00248757 -0.00197863 0.00117654)
(-0.00282943 -0.00197301 0.00196428)
(-0.00247282 -0.00080247 0.00190501)
(-0.00266243 -0.00216575 0.00128998)
(-0.00264562 -0.00131926 0.00210016)
(-0.0026727 -0.00148305 0.00213613)
(-0.0022449 -0.00103995 0.00205668)
(-0.00221859 -0.000545924 0.00188001)
(-0.00209964 -0.00152459 0.00115466)
(-0.00223273 -0.000608921 0.00183559)
(-0.00237508 -0.00133364 0.00135018)
(-0.00232627 -0.00136211 0.00305202)
(-0.00233431 -0.000998756 0.0031566)
(-0.002187 -0.00188758 0.00223054)
(-0.00238894 -0.00113818 0.00275196)
(-0.00231485 -0.000722942 0.00263856)
(-0.00219049 -0.00157109 0.0017888)
(-0.00233753 -0.000756973 0.00319424)
(-0.00267974 -0.00164335 0.00219742)
(-0.00232051 -0.000888415 0.00291339)
(-0.00221544 -0.00187904 0.00354173)
(-0.00226017 -0.00129148 0.00343342)
(-0.00219846 -0.0023756 0.00248437)
(-0.00226535 -0.000906169 0.00341742)
(-0.00261623 -0.00180872 0.00235182)
(-0.00226142 -0.00115866 0.0033304)
(-0.00228343 -0.00170126 0.0034669)
(-0.00224499 -0.00126765 0.00347811)
(-0.00220257 -0.00230212 0.00248631)
(-0.00227257 -0.00112969 0.00370289)
(-0.00266067 -0.00209965 0.00268678)
(-0.00236718 -0.00167753 0.003408)
(-0.00231248 -0.00119232 0.00333395)
(-0.00227263 -0.00217235 0.00235048)
(-0.00233891 -0.000933263 0.00336072)
(-0.00267743 -0.00183046 0.0024251)
(-0.0022281 -0.00142912 0.00356197)
(-0.00206935 -0.000525758 0.00255625)
(-0.00229025 -0.00127488 0.00160655)
(-0.00216721 -0.000372096 0.00228794)
(-0.00237797 -0.00127279 0.00148432)
(-0.00236652 -0.00134151 0.00290287)
(-0.00224836 -0.000824888 0.00266512)
(-0.00213525 -0.00184541 0.00176001)
(-0.00206012 -0.000813955 0.00233118)
(-0.00219454 -0.00153997 0.00170246)
(-0.00203209 -0.000725254 0.0022439)
(-0.00227143 -0.000774003 0.00218279)
(-0.00208448 -0.000686468 0.00257516)
(-0.00212437 -0.0014709 0.00157698)
(-0.00232014 -0.000625955 0.00248525)
(-0.00238151 -0.00155354 0.00164094)
(-0.00220328 -0.0010908 0.00360466)
(-0.0023978 -0.00197241 0.00256055)
(-0.00245405 -0.000902984 0.00338574)
(-0.0025981 -0.00196876 0.00244334)
(-0.0023082 -0.00158924 0.00281236)
(-0.00236413 -0.00108637 0.00279819)
(-0.00200973 -0.00210033 0.00181607)
(-0.00227492 -0.00110395 0.00270187)
(-0.00231185 -0.00192232 0.00203173)
(-0.00229927 -0.00140958 0.00340873)
(-0.00239343 -0.00150043 0.00345202)
(-0.00216473 -0.00112717 0.00314672)
(-0.00225875 -0.00109764 0.0028987)
(-0.0024305 -0.000584506 0.00214303)
(-0.00253578 -0.00133609 0.00126339)
(-0.00259098 -0.000499731 0.00213368)
(-0.00264322 -0.00131486 0.00124916)
(-0.00256913 -0.000554314 0.00209456)
(-0.0025821 -0.00139661 0.00119944)
(-0.00249124 -0.000595928 0.00206738)
(-0.00245521 -0.00144702 0.0011717)
(-0.00238858 -0.000650338 0.00203383)
(-0.00231933 -0.00152227 0.00114129)
(-0.0022892 -0.000731333 0.002103)
(-0.00218024 -0.00163427 0.00119025)
(-0.00227376 -0.000815694 0.00215079)
(-0.00214745 -0.00181769 0.00126128)
(-0.00219613 -0.00100583 0.00219198)
(-0.00207381 -0.00193182 0.00125353)
(-0.00233214 -0.00131291 0.00217023)
(-0.00242889 -0.000839412 0.00215025)
(-0.00215566 -0.00177047 0.0013727)
(-0.00254181 -0.000836691 0.00212608)
(-0.00259064 -0.00160536 0.00160596)
(-0.00225611 -0.00104793 0.00257199)
(-0.00246728 -0.00110534 0.00263431)
(-0.00256477 -0.000842735 0.00210614)
(-0.00255707 -0.00165314 0.00154098)
(-0.00256014 -0.000859026 0.00211761)
(-0.00250934 -0.00170041 0.00154781)
(-0.00252717 -0.00118799 0.00266642)
(-0.00258708 -0.00120749 0.00268414)
(-0.00230831 -0.00113212 0.00271575)
(-0.00230294 -0.00196541 0.0020549)
(-0.00240886 -0.00116822 0.00280918)
(-0.00242498 -0.00201394 0.00214949)
(-0.00234155 -0.00156532 0.00344124)
(-0.00237269 -0.0015861 0.00350047)
(-0.00251064 -0.00119198 0.00286492)
(-0.00250259 -0.00207446 0.00219699)
(-0.00267802 -0.00117926 0.00290536)
(-0.00262764 -0.00208107 0.00224638)
(-0.00248448 -0.00157853 0.003519)
(-0.00267543 -0.00156724 0.00353483)
(-0.00252518 -0.00091384 0.00210201)
(-0.0024277 -0.00178153 0.00151944)
(-0.00242092 -0.00096543 0.00213301)
(-0.00231603 -0.00186526 0.0015586)
(-0.00259833 -0.00128148 0.00267102)
(-0.002526 -0.00129029 0.00271397)
(-0.00245832 -0.00110433 0.00217299)
(-0.00224482 -0.00195535 0.0015666)
(-0.0025073 -0.00175515 0.00231594)
(-0.00219402 -0.000771384 0.00235878)
(-0.00235196 -0.00208082 0.00161374)
(-0.00257478 -0.00135798 0.00271465)
(-0.0024637 -0.00146166 0.00270485)
(-0.00278574 -0.00123083 0.0029189)
(-0.00269373 -0.00214853 0.00223736)
(-0.00279444 -0.00124304 0.00288603)
(-0.00264765 -0.00217074 0.00220556)
(-0.00280811 -0.0016131 0.00355506)
(-0.00286667 -0.00166068 0.00357161)
(-0.00271508 -0.00130929 0.00282546)
(-0.00259036 -0.00224968 0.00213306)
(-0.00246822 -0.00132304 0.0027703)
(-0.00236666 -0.00233801 0.00209274)
(-0.00274452 -0.00177452 0.00352767)
(-0.00246818 -0.0018139 0.00348636)
(-0.00183109 -0.00073141 0.00200829)
(-0.00191138 -0.000259615 0.0021297)
(-0.00180887 -0.00109636 0.00104443)
(-0.00199304 -0.000794473 0.00212871)
(-0.00206448 -0.00041403 0.00218059)
(-0.00193005 -0.00125182 0.00138755)
(-0.00181951 -3.13437e-05 0.00200499)
(-0.00196672 -0.000918004 0.00125676)
(-0.0020254 -9.62605e-05 0.0020399)
(-0.0022173 -0.000958013 0.00124006)
(-0.0021179 -0.000357736 0.00194885)
(-0.00201125 -0.000315679 0.00231479)
(-0.00220218 -0.00106053 0.00142704)
(-0.00223876 -0.000101247 0.00216982)
(-0.00234967 -0.00106916 0.00138585)
(-0.00197328 -0.00100924 0.00240274)
(-0.00203687 -0.000556126 0.0024335)
(-0.0019222 -0.00145949 0.00150396)
(-0.00224398 -0.000419173 0.00266511)
(-0.00247558 -0.00128276 0.00178795)
(-0.00230007 -0.000977378 0.00241017)
(-0.00223535 -0.00051046 0.00235553)
(-0.00209693 -0.00145324 0.00148159)
(-0.00226283 -0.000365482 0.00238785)
(-0.00250944 -0.00123602 0.00154512)
(-0.00237029 -0.0010355 0.00262797)
(-0.00225567 -0.000472704 0.00261633)
(-0.00222984 -0.00142508 0.00139135)
(-0.00230533 -0.000600392 0.00253107)
(-0.00191086 -0.000317399 0.0022973)
(-0.00209805 -0.00107318 0.00142275)
(-0.0021007 -0.000449217 0.00228291)
(-0.00229218 -0.000845241 0.00205287)
(-0.00228143 -0.00046132 0.00202465)
(-0.00210794 -0.00129907 0.00126544)
(-0.00228197 -0.000350454 0.00211324)
(-0.00248115 -0.00107144 0.0013043)
(-0.0023549 -0.000228143 0.0019891)
(-0.0025282 -0.00100736 0.00111284)
(-0.0026231 -0.000156239 0.0018927)
(-0.00274346 -0.00108592 0.00119574)
(-0.00230493 -0.000819962 0.00209613)
(-0.00226443 -0.000359403 0.0021257)
(-0.00215596 -0.00125759 0.00104949)