/*--------------------------------*- C++ -*----------------------------------*\
| =========                 |                                                 |
| \\      /  F ield         | OpenFOAM: The Open Source CFD Toolbox           |
|  \\    /   O peration     | Version:  5.0                                   |
|   \\  /    A nd           | Web:      www.OpenFOAM.org                      |
|    \\/     M anipulation  |                                                 |
\*---------------------------------------------------------------------------*/
FoamFile
{
    version     2.0;
    format      ascii;
    class       volVectorField;
    location    "60";
    object      wallShearStressHyper;
}
// * * * * * * * * * * * * * * * * * * * * * * * * * * * * * * * * * * * * * //

dimensions      [1 -1 -2 0 0 0 0];

internalField   uniform (0 0 0);

boundaryField
{
    Wall_Aorta
    {
        type            calculated;
        value           nonuniform List<vector> 
8535
(
(-0.00107451 -0.00443569 0.00890842)
(-0.00108098 -0.00417603 0.00879551)
(-0.00222198 -0.00473759 0.00855485)
(-0.000866276 -0.00426032 0.00881631)
(-0.00113915 -0.00387893 0.0081513)
(-0.00203137 -0.00452992 0.00873973)
(-0.00165975 -0.00428285 0.00930584)
(-0.00184603 -0.00431347 0.00888013)
(-0.00137085 -0.00452232 0.00908063)
(-0.00111587 -0.00425299 0.00943585)
(-0.00145616 -0.00395919 0.00895847)
(-0.00233456 -0.00458649 0.00930986)
(-0.000915313 -0.00389463 0.00906137)
(-0.000927126 -0.00383113 0.00898967)
(-0.00194903 -0.00407256 0.00906796)
(-0.000957217 -0.00369478 0.00900414)
(-0.000965944 -0.00352103 0.00890444)
(-0.00194484 -0.00405733 0.00911449)
(-0.00163872 -0.00392571 0.00954222)
(-0.00168116 -0.00401398 0.00966047)
(-0.00197956 -0.00419369 0.00921012)
(-0.0015741 -0.00448542 0.00972778)
(-0.00112482 -0.00392049 0.00959579)
(-0.00117981 -0.00383258 0.00954901)
(-0.0022301 -0.0040549 0.009517)
(-0.00196255 -0.00398339 0.0099867)
(-0.00104153 -0.00333724 0.00892573)
(-0.00131861 -0.0030781 0.00838257)
(-0.00214348 -0.00374647 0.00902143)
(-0.00191747 -0.00324293 0.00876347)
(-0.00173473 -0.00343381 0.00908645)
(-0.00111598 -0.00285386 0.00869764)
(-0.00153683 -0.00252904 0.00825942)
(-0.00219672 -0.00295969 0.00914936)
(-0.00193673 -0.00289649 0.00919343)
(-0.00217135 -0.00268245 0.0090244)
(-0.00173746 -0.00331408 0.00908306)
(-0.00125666 -0.0028454 0.00912881)
(-0.00148502 -0.00266136 0.00894786)
(-0.00237359 -0.00300678 0.00926669)
(-0.00165232 -0.00346693 0.00932418)
(-0.00109316 -0.00356955 0.0094896)
(-0.00115989 -0.00348016 0.00934434)
(-0.00219065 -0.00392663 0.00963573)
(-0.00111591 -0.00320832 0.00923999)
(-0.00156429 -0.00311072 0.00884592)
(-0.00226725 -0.00378234 0.00948265)
(-0.00186042 -0.00370503 0.00925575)
(-0.00115455 -0.00382284 0.00958912)
(-0.00127914 -0.00368066 0.00974943)
(-0.00243693 -0.00400448 0.00998311)
(-0.0010605 -0.00366539 0.00968591)
(-0.00156807 -0.00335896 0.0092565)
(-0.00236714 -0.00393859 0.00979673)
(-0.00190015 -0.00365003 0.00992018)
(-0.00179814 -0.00373719 0.00989202)
(-0.00119742 -0.00314813 0.00947342)
(-0.00146322 -0.00308427 0.0095354)
(-0.00219051 -0.00326831 0.0097124)
(-0.00189427 -0.00324768 0.0093319)
(-0.00179918 -0.00343177 0.00936769)
(-0.00180377 -0.00334885 0.00994732)
(-0.00197584 -0.0030557 0.0096057)
(-0.00193345 -0.00356228 0.00930859)
(-0.00169808 -0.00392303 0.00984259)
(-0.00106438 -0.00334232 0.0093456)
(-0.00156969 -0.00327351 0.00909256)
(-0.00237958 -0.00389447 0.0100015)
(-0.00196853 -0.00325534 0.0098402)
(-0.001977 -0.00356399 0.00957152)
(-0.00178468 -0.00377965 0.00970468)
(-0.00118462 -0.00218896 0.00840908)
(-0.0012443 -0.00235421 0.00872803)
(-0.00210893 -0.00283536 0.00943284)
(-0.00122658 -0.00236731 0.00894204)
(-0.00155893 -0.00234188 0.00861014)
(-0.00226821 -0.00271453 0.00917625)
(-0.00194243 -0.00228955 0.00894307)
(-0.00124381 -0.00254062 0.00916083)
(-0.00175749 -0.00254467 0.0088891)
(-0.00246484 -0.00306814 0.00949186)
(-0.00122258 -0.00262731 0.00902171)
(-0.0015738 -0.00246132 0.00839904)
(-0.00250117 -0.00289175 0.00929902)
(-0.00198375 -0.00271048 0.00949649)
(-0.00196669 -0.00263683 0.0088821)
(-0.00183894 -0.0029424 0.00898826)
(-0.00187699 -0.00250793 0.00863939)
(-0.00172632 -0.00291764 0.00913811)
(-0.00107868 -0.0023788 0.00895267)
(-0.00159029 -0.00233527 0.00837031)
(-0.00221513 -0.00255145 0.009309)
(-0.00204506 -0.0027299 0.00930874)
(-0.00195732 -0.002961 0.00946256)
(-0.00129699 -0.00253498 0.00950783)
(-0.00185744 -0.00240415 0.00898496)
(-0.00245947 -0.00264562 0.00960339)
(-0.0021857 -0.00245948 0.00962236)
(-0.00201209 -0.00238855 0.00938241)
(-0.00113478 -0.00294631 0.00937525)
(-0.00148106 -0.00312773 0.00938757)
(-0.00242276 -0.00346834 0.00965691)
(-0.00107978 -0.00292869 0.00921221)
(-0.0017352 -0.00293213 0.00894733)
(-0.00244267 -0.00336739 0.0098298)
(-0.00185548 -0.00334206 0.00941043)
(-0.00208173 -0.00322589 0.00954818)
(-0.00200811 -0.00339414 0.00960513)
(-0.00198713 -0.00314408 0.0099931)
(-0.00124275 -0.00293493 0.00942881)
(-0.00148721 -0.00282368 0.00938081)
(-0.0024558 -0.00323501 0.0098345)
(-0.0019313 -0.00309631 0.00975901)
(-0.00204304 -0.00308056 0.00910955)
(-0.00113033 -0.00313203 0.00947033)
(-0.00177965 -0.00285183 0.00902944)
(-0.00248852 -0.00334411 0.00972417)
(-0.0011017 -0.00316618 0.00928346)
(-0.00141127 -0.00311348 0.00951093)
(-0.00236245 -0.00333222 0.00987195)
(-0.00178533 -0.00333436 0.00981142)
(-0.00196933 -0.00308383 0.00963005)
(-0.00194519 -0.00275056 0.0097722)
(-0.00205426 -0.00302415 0.00909412)
(-0.0018874 -0.00341768 0.00955266)
(-0.0013452 -0.00258846 0.00931827)
(-0.00170154 -0.00253449 0.00936023)
(-0.00239517 -0.00271526 0.00961683)
(-0.00215588 -0.00272921 0.00974269)
(-0.00118212 -0.00200558 0.00911882)
(-0.00192162 -0.00185776 0.00876734)
(-0.00241894 -0.0021008 0.00957213)
(-0.00214234 -0.00235019 0.00927773)
(-0.00201867 -0.00285795 0.00964633)
(-0.00122181 -0.00239919 0.00926978)
(-0.00186179 -0.00219991 0.00893334)
(-0.00255557 -0.00272678 0.00996973)
(-0.00214438 -0.0022456 0.0090203)
(-0.00208687 -0.00274875 0.00941092)
(-0.00208074 -0.0019492 0.00944042)
(-0.0012614 -0.002649 0.00942448)
(-0.00160869 -0.00259346 0.00929926)
(-0.00253855 -0.00278534 0.00992398)
(-0.00121493 -0.00214899 0.00904864)
(-0.00189511 -0.00215177 0.00880069)
(-0.00250909 -0.00265651 0.00960485)
(-0.0021436 -0.00263917 0.00913715)
(-0.00199282 -0.00278625 0.00990994)
(-0.00104524 -0.00265868 0.00951904)
(-0.00154436 -0.00290565 0.00954888)
(-0.00237069 -0.00313137 0.0101845)
(-0.00106352 -0.00261055 0.00934562)
(-0.00188505 -0.00252773 0.00908302)
(-0.00252332 -0.00298233 0.0099143)
(-0.00201439 -0.00317206 0.00977111)
(-0.00204754 -0.00234449 0.00917842)
(-0.00202855 -0.00250589 0.00925089)
(-0.00204067 -0.00229078 0.00964148)
(-0.00211685 -0.00200945 0.00936173)
(-0.00117582 -0.00218743 0.00903613)
(-0.00164482 -0.0021367 0.00890089)
(-0.00230653 -0.00223242 0.00950556)
(-0.0010932 -0.00233267 0.00960351)
(-0.00167118 -0.00256527 0.00942368)
(-0.00234508 -0.0026909 0.0100242)
(-0.0019454 -0.00274333 0.00931439)
(-0.00196373 -0.00287648 0.00934785)
(-0.00182975 -0.00274768 0.0100941)
(-0.00200384 -0.0022482 0.00959194)
(-0.00210388 -0.00245217 0.00962114)
(-0.00206096 -0.00178205 0.00872895)
(-0.00210653 -0.00230815 0.00917985)
(-0.00104879 -0.00165763 0.00846039)
(-0.00183317 -0.00170526 0.00837949)
(-0.00240856 -0.00218051 0.00946638)
(-0.00203067 -0.00212916 0.00872375)
(-0.0019675 -0.00194324 0.00873582)
(-0.00212409 -0.00214261 0.00888284)
(-0.00195756 -0.00178878 0.00921719)
(-0.000987144 -0.0021323 0.00897697)
(-0.00180638 -0.00203985 0.00860551)
(-0.00242739 -0.00240766 0.00983579)
(-0.00194883 -0.00238081 0.00964906)
(-0.00186606 -0.00206201 0.00925299)
(-0.0019861 -0.00245295 0.00901445)
(-0.00186503 -0.00267681 0.00967328)
(-0.00178338 -0.00217292 0.00903131)
(-0.00175491 -0.00196334 0.0100224)
(-0.00189497 -0.00148872 0.00969617)
(-0.000906127 -0.00154393 0.00980753)
(-0.00161961 -0.00175622 0.00954949)
(-0.00219605 -0.00179857 0.0101659)
(-0.000817314 -0.00135924 0.00944325)
(-0.00176459 -0.00155093 0.00902587)
(-0.00213739 -0.00155639 0.0102279)
(-0.00183171 -0.0015211 0.010067)
(-0.00182531 -0.0061376 0.00759062)
(-0.00172537 -0.00512226 0.00790574)
(-0.00186961 -0.00694875 0.00625337)
(-0.00122591 -0.00458393 0.00746187)
(-0.00254055 -0.00633821 0.00594334)
(-0.00199323 -0.00532083 0.00730341)
(-0.00182379 -0.00466502 0.00786277)
(-0.00192175 -0.0061221 0.00604853)
(-0.00139447 -0.00434417 0.00750953)
(-0.00260221 -0.00576706 0.00590511)
(-0.00180089 -0.00586509 0.00729988)
(-0.00157493 -0.00480237 0.00757536)
(-0.00252158 -0.00693125 0.00622585)
(-0.00179012 -0.00543815 0.00707281)
(-0.00167132 -0.00469729 0.00768244)
(-0.00246313 -0.00627287 0.00585987)
(-0.00166942 -0.00560416 0.00710788)
(-0.00159795 -0.00477078 0.00749993)
(-0.00245283 -0.00652762 0.0060538)
(-0.00185665 -0.00539737 0.00698848)
(-0.00174222 -0.004605 0.00753799)
(-0.00193298 -0.00639688 0.00585906)
(-0.00126751 -0.00426827 0.00731581)
(-0.0026592 -0.00610795 0.00589117)
(-0.00155619 -0.00544698 0.0084907)
(-0.00181128 -0.0052486 0.00837512)
(-0.00152348 -0.00653029 0.00820031)
(-0.00139004 -0.00496351 0.00797002)
(-0.00146587 -0.00474702 0.00870588)
(-0.00191673 -0.0062725 0.00794792)
(-0.0013119 -0.00556612 0.00875508)
(-0.00141328 -0.00502888 0.00739094)
(-0.00108583 -0.00456182 0.00760814)
(-0.00213939 -0.00561751 0.00623516)
(-0.00159992 -0.00487978 0.00787178)
(-0.00128523 -0.00464337 0.00813425)
(-0.00235164 -0.00563286 0.00716796)
(-0.00141039 -0.00539767 0.00781996)
(-0.00118035 -0.00479952 0.00805282)
(-0.00244694 -0.00589562 0.0072633)
(-0.00150723 -0.00501185 0.0078003)
(-0.00122111 -0.00461195 0.00803247)
(-0.00226255 -0.00573328 0.00695395)
(-0.00147547 -0.00514717 0.00778046)
(-0.00115572 -0.00476445 0.00808538)
(-0.0022365 -0.00581536 0.00697872)
(-0.00159584 -0.00501692 0.00784459)
(-0.00128105 -0.00465921 0.00810538)
(-0.00242077 -0.00585919 0.00725979)
(-0.00133884 -0.00492324 0.00724934)
(-0.00182733 -0.00423572 0.00759256)
(-0.00235077 -0.00574082 0.00751803)
(-0.00132802 -0.00498459 0.00712148)
(-0.00143536 -0.00438059 0.0073115)
(-0.0023903 -0.00567811 0.0074003)
(-0.00215154 -0.00485182 0.0080844)
(-0.00159424 -0.00481698 0.00836708)
(-0.00211089 -0.00496796 0.00808949)
(-0.00148845 -0.00509842 0.00856817)
(-0.00129986 -0.00515261 0.00755626)
(-0.00128682 -0.00441769 0.00719828)
(-0.00244363 -0.00571262 0.00724657)
(-0.00155649 -0.00531957 0.00801839)
(-0.00198109 -0.00521053 0.00799394)
(-0.00136473 -0.00516649 0.00839572)
(-0.00137883 -0.00515743 0.00821245)
(-0.00112231 -0.00482057 0.00835019)
(-0.00218192 -0.00596815 0.00742506)
(-0.0019906 -0.00495758 0.00749219)
(-0.00178921 -0.00449364 0.00834172)
(-0.00182675 -0.00589521 0.00634348)
(-0.0016974 -0.00512899 0.00754063)
(-0.00202626 -0.00462607 0.00745215)
(-0.00195777 -0.00605338 0.00691925)
(-0.00182239 -0.00470105 0.00761979)
(-0.00171085 -0.00431668 0.0080566)
(-0.00236359 -0.00600609 0.00692198)
(-0.00149193 -0.00487427 0.00793931)
(-0.00190058 -0.00526057 0.00796197)
(-0.00200631 -0.00485796 0.00793971)
(-0.00180619 -0.00643683 0.00755352)
(-0.00152322 -0.00444065 0.00831443)
(-0.00274316 -0.0057924 0.00695638)
(-0.00176232 -0.00478755 0.0075931)
(-0.00177593 -0.0044671 0.00843874)
(-0.00226673 -0.00600874 0.00702261)
(-0.00144791 -0.0054 0.00856014)
(-0.00163254 -0.00499207 0.00694737)
(-0.00191881 -0.00443826 0.00692426)
(-0.00186114 -0.00577193 0.00598125)
(-0.00146404 -0.00501062 0.00663805)
(-0.00133088 -0.00449845 0.00704962)
(-0.00233638 -0.00596209 0.00572527)
(-0.00199435 -0.00512107 0.00705264)
(-0.0017697 -0.00461637 0.00743852)
(-0.00205222 -0.00524518 0.00593309)
(-0.00186457 -0.00557478 0.00709587)
(-0.00153068 -0.00495459 0.00746401)
(-0.00211186 -0.00655025 0.00601613)
(-0.00259335 -0.00625878 0.00675529)
(-0.00162514 -0.00493749 0.00683454)
(-0.00141948 -0.00444829 0.00716116)
(-0.00236566 -0.00570537 0.00583402)
(-0.00147238 -0.00468111 0.00720388)
(-0.00121305 -0.00438483 0.0075892)
(-0.00215962 -0.0054932 0.00624511)
(-0.00151018 -0.00479597 0.00709565)
(-0.00152786 -0.00440802 0.00767313)
(-0.00228313 -0.0057983 0.00632186)
(-0.00149621 -0.00482407 0.00758336)
(-0.00143309 -0.00477974 0.00719932)
(-0.0016738 -0.00425182 0.00718227)
(-0.00173617 -0.00552456 0.00639798)
(-0.00123704 -0.00410847 0.00778009)
(-0.00267681 -0.00534759 0.00656844)
(-0.00138262 -0.00472769 0.0067941)
(-0.00121804 -0.00436143 0.00726149)
(-0.00214307 -0.00557209 0.00589478)
(-0.00137814 -0.0048866 0.00685689)
(-0.00113285 -0.00438555 0.00711397)
(-0.00213791 -0.00555539 0.00571072)
(-0.00139173 -0.00483736 0.00730498)
(-0.00116548 -0.00447147 0.00764074)
(-0.00212516 -0.00554342 0.00632712)
(-0.00182376 -0.00504766 0.00700244)
(-0.00166471 -0.00447725 0.00754447)
(-0.00253752 -0.00618558 0.00629293)
(-0.00192829 -0.0047897 0.00729694)
(-0.00183223 -0.00433465 0.00790527)
(-0.00234642 -0.00586788 0.00620155)
(-0.00143042 -0.0041083 0.00746611)
(-0.00269625 -0.00548087 0.00607512)
(-0.00176514 -0.00509763 0.00710996)
(-0.00196746 -0.00439642 0.00703452)
(-0.00190236 -0.0061508 0.00647481)
(-0.00177435 -0.00417947 0.00786353)
(-0.00269109 -0.00604459 0.00664038)
(-0.00157696 -0.00489986 0.00778541)
(-0.00139486 -0.00442273 0.00738953)
(-0.00278524 -0.00596141 0.00613316)
(-0.00189976 -0.00475118 0.00724759)
(-0.00163481 -0.00454518 0.00783274)
(-0.00254159 -0.00578036 0.00655547)
(-0.00189494 -0.00448884 0.00758514)
(-0.00140548 -0.00438847 0.00803505)
(-0.00235331 -0.00545859 0.00663662)
(-0.00159712 -0.00465166 0.00788791)
(-0.00151846 -0.00437168 0.00838629)
(-0.00212695 -0.00573941 0.00735673)
(-0.0019607 -0.00448196 0.00788378)
(-0.00144166 -0.00429993 0.00820161)
(-0.0024769 -0.00527451 0.00701501)
(-0.00144846 -0.00486952 0.00796008)
(-0.00159916 -0.00444066 0.00789756)
(-0.00159129 -0.00562389 0.00733839)
(-0.00129083 -0.00475966 0.00791938)
(-0.00165067 -0.00453347 0.00808182)
(-0.0020749 -0.00586791 0.00780058)
(-0.00129053 -0.00511433 0.00871517)
(-0.00186462 -0.00436627 0.0078313)
(-0.00142554 -0.00427069 0.00821651)
(-0.00252437 -0.00522494 0.00717977)
(-0.00162126 -0.00458452 0.00802895)
(-0.00125139 -0.00449199 0.00838314)
(-0.00225706 -0.00548848 0.00755819)
(-0.00167954 -0.0043797 0.00794273)
(-0.00134853 -0.00429927 0.0083411)
(-0.00247723 -0.00509414 0.00715477)
(-0.00168217 -0.00457755 0.00793337)
(-0.00134495 -0.0044885 0.00838647)
(-0.00229771 -0.00562718 0.00749795)
(-0.00154618 -0.00475287 0.00782438)
(-0.00156237 -0.00455346 0.00872704)
(-0.00208256 -0.00593777 0.0074421)
(-0.00167524 -0.00508227 0.0079549)
(-0.00175259 -0.00470461 0.007955)
(-0.00158491 -0.00612925 0.00739642)
(-0.00157677 -0.00442959 0.00877981)
(-0.00234983 -0.00605808 0.00765503)
(-0.00165476 -0.0052152 0.00835659)
(-0.00156322 -0.00482002 0.00914455)
(-0.0015993 -0.00621023 0.00762597)
(-0.00125753 -0.00539646 0.00881242)
(-0.00144294 -0.00485033 0.00767871)
(-0.00177385 -0.00452586 0.00761924)
(-0.00168233 -0.00572137 0.00702149)
(-0.00130582 -0.00430978 0.00838929)
(-0.00254628 -0.00559414 0.00705544)
(-0.00129484 -0.00496132 0.00821127)
(-0.00135507 -0.0050035 0.0079469)
(-0.00161688 -0.00486838 0.00799167)
(-0.00141983 -0.00616741 0.0077574)
(-0.000934357 -0.00428986 0.00836185)
(-0.00233429 -0.00544825 0.00734618)
(-0.00166307 -0.00478106 0.00816617)
(-0.00139239 -0.00465171 0.00870874)
(-0.00192547 -0.00584138 0.00763936)
(-0.00105508 -0.00532633 0.00861604)
(-0.00108633 -0.00471423 0.00892571)
(-0.00226379 -0.00596955 0.00780577)
(-0.00137521 -0.00478472 0.00747201)
(-0.00171997 -0.0043571 0.00757048)
(-0.00213326 -0.00569609 0.00696194)
(-0.0015395 -0.0048113 0.00764185)
(-0.0012636 -0.0045662 0.00790638)
(-0.00225187 -0.0055795 0.00688907)
(-0.00141113 -0.00480375 0.00772937)
(-0.00175098 -0.00438978 0.0077055)
(-0.00220723 -0.0057467 0.00723833)
(-0.00147135 -0.00475452 0.00822855)
(-0.0014381 -0.00472806 0.00797352)
(-0.00145421 -0.00470728 0.00819826)
(-0.00128779 -0.00573343 0.00659901)
(-0.00151138 -0.0046345 0.006309)
(-0.00148793 -0.0066657 0.00553718)
(-0.00132479 -0.00449008 0.00707859)
(-0.00176675 -0.00617859 0.0052863)
(-0.00123272 -0.00437781 0.00695505)
(-0.00210499 -0.00614695 0.0051343)
(-0.00171123 -0.0055645 0.00654322)
(-0.00184324 -0.00467219 0.00746537)
(-0.00158788 -0.00666605 0.00530504)
(-0.00158574 -0.00440015 0.00719963)
(-0.00189264 -0.00616878 0.00520181)
(-0.00145908 -0.00554265 0.0063562)
(-0.0017561 -0.00480327 0.00647482)
(-0.0014837 -0.00668057 0.00555915)
(-0.00168611 -0.0047216 0.00759412)
(-0.00193915 -0.00641948 0.00572247)
(-0.00155308 -0.00425496 0.00711115)
(-0.00174207 -0.00607033 0.00512915)
(-0.00184507 -0.00420074 0.00709355)
(-0.00221743 -0.00644108 0.00533781)
(-0.00172215 -0.00462154 0.00764111)
(-0.00191723 -0.0064697 0.00565032)
(-0.00171502 -0.00464811 0.0076769)
(-0.00192552 -0.00643577 0.00547)
(-0.0015042 -0.00545741 0.00751576)
(-0.00168031 -0.0047856 0.00747762)
(-0.00142853 -0.00646377 0.00653324)
(-0.0011821 -0.00460702 0.00818548)
(-0.00155124 -0.0061861 0.00623202)
(-0.00128246 -0.00440823 0.0078199)
(-0.00180983 -0.00640292 0.0062578)
(-0.00129998 -0.0057324 0.00712038)
(-0.00149482 -0.0051863 0.00711516)
(-0.00123134 -0.00697029 0.00630234)
(-0.00148872 -0.00512778 0.00816807)
(-0.00172733 -0.00688163 0.00645463)
(-0.00118482 -0.0058941 0.00741517)
(-0.00154189 -0.00524396 0.00718122)
(-0.00122598 -0.00694208 0.00647687)
(-0.00103574 -0.00579078 0.00801314)
(-0.00172432 -0.00518074 0.0067376)
(-0.00160433 -0.00443581 0.00765346)
(-0.00142567 -0.00617722 0.00558993)
(-0.00119721 -0.00431488 0.00739711)
(-0.00166453 -0.00594656 0.00544455)
(-0.0014784 -0.00559375 0.0068629)
(-0.00157651 -0.00459414 0.00746841)
(-0.00191001 -0.00655534 0.0055245)
(-0.00114903 -0.00497358 0.00684647)
(-0.00180491 -0.00549745 0.00692446)
(-0.00170581 -0.00459714 0.0075673)
(-0.001758 -0.00633215 0.00563387)
(-0.00125083 -0.00419187 0.00712051)
(-0.00234117 -0.00569067 0.0053872)
(-0.00161728 -0.00503735 0.0062894)
(-0.00155318 -0.00418993 0.00703622)
(-0.00142516 -0.00609469 0.00498073)
(-0.00148007 -0.00406378 0.00686665)
(-0.00223059 -0.00616747 0.00544235)
(-0.00181468 -0.00512465 0.00684336)
(-0.00170416 -0.00428819 0.00752216)
(-0.00172556 -0.00611122 0.00576815)
(-0.00124345 -0.00418829 0.00729381)
(-0.00237461 -0.00578165 0.00583801)
(-0.0016717 -0.00526713 0.00714259)
(-0.00189736 -0.00455535 0.00719945)
(-0.00166687 -0.00619358 0.00634785)
(-0.00165432 -0.00422514 0.00785433)
(-0.00234735 -0.0060375 0.00637507)
(-0.00148392 -0.00530529 0.00696044)
(-0.00172537 -0.00460687 0.00707529)
(-0.00150783 -0.00643235 0.00628285)
(-0.00135509 -0.00444216 0.00781996)
(-0.00165144 -0.00609282 0.00609337)
(-0.00132906 -0.00525129 0.00788236)
(-0.00177793 -0.00560485 0.00690983)
(-0.00184967 -0.00487819 0.00783862)
(-0.00157896 -0.00683221 0.00575325)
(-0.00128066 -0.00569567 0.00689035)
(-0.00156113 -0.00505178 0.0069156)
(-0.00130303 -0.00692526 0.00621312)
(-0.00112688 -0.00446407 0.00743909)
(-0.00202768 -0.00615896 0.00551348)
(-0.00160738 -0.00478383 0.00776458)
(-0.00192609 -0.00666527 0.00598121)
(-0.00169592 -0.00482129 0.00793004)
(-0.00192541 -0.0067712 0.0060472)
(-0.00154667 -0.00495187 0.00794639)
(-0.00174259 -0.00671483 0.00627169)
(-0.00159675 -0.00491837 0.00804624)
(-0.00184606 -0.00692864 0.00631194)
(-0.00130314 -0.00518183 0.00728)
(-0.00127593 -0.00421412 0.00745962)
(-0.00193052 -0.0063513 0.00599688)
(-0.00104514 -0.00541828 0.0076884)
(-0.00170619 -0.00594959 0.00647421)
(-0.00194192 -0.00506846 0.00654321)
(-0.00145043 -0.00711043 0.00541032)
(-0.00185911 -0.00510741 0.00767094)
(-0.00188143 -0.00716685 0.00568859)
(-0.00180199 -0.00519654 0.00786921)
(-0.00190153 -0.00762808 0.00587153)
(-0.00184184 -0.00555876 0.00816858)
(-0.00193724 -0.00804251 0.00619622)
(-0.00184521 -0.00621626 0.00714098)
(-0.00199619 -0.00526705 0.00690043)
(-0.00152709 -0.00720084 0.0058035)
(-0.00184868 -0.0049529 0.00764103)
(-0.00187324 -0.00683504 0.0057857)
(-0.00183846 -0.00610778 0.00694062)
(-0.00198933 -0.0051204 0.00674697)
(-0.00158669 -0.00725554 0.00566775)
(-0.00156406 -0.00562906 0.0074886)
(-0.00200615 -0.00456621 0.00757524)
(-0.00232088 -0.00667182 0.00571824)
(-0.00160687 -0.00591858 0.00774776)
(-0.00183553 -0.00509699 0.00772147)
(-0.00188993 -0.00713247 0.00580416)
(-0.00174544 -0.00496772 0.00755815)
(-0.00179056 -0.00726755 0.00574807)
(-0.00185955 -0.00577868 0.0082663)
(-0.00200063 -0.00840945 0.00634603)
(-0.00189991 -0.00580765 0.00824078)
(-0.00198376 -0.00841756 0.00632734)
(-0.00193284 -0.00579622 0.00814971)
(-0.00199681 -0.00827764 0.0062964)
(-0.00186665 -0.00566252 0.00785637)
(-0.00193415 -0.00803916 0.00610507)
(-0.00170557 -0.00471129 0.00733579)
(-0.00171249 -0.0067321 0.00546358)
(-0.00157941 -0.00459982 0.00717819)
(-0.00162588 -0.00669385 0.00533537)
(-0.00153863 -0.00459942 0.0070221)
(-0.00162061 -0.00666494 0.00526818)
(-0.00155601 -0.00478349 0.00707656)
(-0.00156665 -0.00663527 0.00536311)
(-0.00171806 -0.0050177 0.00749092)
(-0.00180534 -0.00734772 0.00564179)
(-0.00168834 -0.00505629 0.00746053)
(-0.00174248 -0.00739213 0.00559307)
(-0.00173926 -0.00505109 0.007348)
(-0.00181594 -0.00742008 0.00563236)
(-0.00176918 -0.00500887 0.00716199)
(-0.0016667 -0.00721376 0.0055239)
(-0.0015527 -0.00494518 0.00802499)
(-0.00175265 -0.00687279 0.0063461)
(-0.00159141 -0.00488751 0.00798897)
(-0.00184699 -0.00692637 0.00637829)
(-0.00150232 -0.00501372 0.0080174)
(-0.00170607 -0.00675179 0.00646442)
(-0.00158591 -0.004809 0.00784505)
(-0.00173931 -0.00672586 0.00627422)
(-0.00165648 -0.00486704 0.00790864)
(-0.00192645 -0.0068548 0.00619579)
(-0.00176973 -0.00485718 0.00787424)
(-0.00191998 -0.00657915 0.00611388)
(-0.00159128 -0.00482176 0.00778587)
(-0.00174293 -0.00665644 0.00616919)
(-0.00166088 -0.00472105 0.00766563)
(-0.00176633 -0.00659486 0.00617279)
(-0.0018185 -0.00488925 0.00788522)
(-0.00183219 -0.00640901 0.00602067)
(-0.00183759 -0.00485523 0.00785673)
(-0.00172981 -0.00639431 0.0059949)
(-0.00173567 -0.00467523 0.00757499)
(-0.00177782 -0.0066237 0.00622278)
(-0.0018303 -0.00472407 0.00767793)
(-0.00178814 -0.00669795 0.00628591)
(-0.00182948 -0.00480977 0.00777164)
(-0.00164955 -0.00638225 0.00599184)
(-0.00189563 -0.00486601 0.00784774)
(-0.00161955 -0.00654181 0.00608184)
(-0.00192066 -0.00480699 0.00776363)
(-0.00176293 -0.00673381 0.00632188)
(-0.001949 -0.00495955 0.00785945)
(-0.00175949 -0.00678213 0.00637863)
(-0.00172798 -0.0048251 0.00794921)
(-0.00200212 -0.00681186 0.00598288)
(-0.00197955 -0.00470916 0.00785118)
(-0.00242794 -0.00700448 0.00627034)
(-0.00169361 -0.00505314 0.0082029)
(-0.00193245 -0.00703344 0.00630995)
(-0.00171584 -0.00499262 0.0080736)
(-0.00196313 -0.00684869 0.00608116)
(-0.00179972 -0.00592402 0.00695128)
(-0.00191858 -0.00497083 0.00688638)
(-0.00150352 -0.00687243 0.0058274)
(-0.00162123 -0.00584895 0.00784742)
(-0.00185394 -0.00478232 0.00786702)
(-0.00236747 -0.006941 0.00629902)
(-0.00164369 -0.0057881 0.00798235)
(-0.00166932 -0.00500943 0.00656363)
(-0.00177423 -0.00667191 0.00597356)
(-0.0016803 -0.00485983 0.00644427)
(-0.00161652 -0.00657094 0.00571303)
(-0.00169251 -0.00555605 0.0078398)
(-0.00172941 -0.00551318 0.0078156)
(-0.00168134 -0.00488489 0.00637508)
(-0.00147976 -0.00646589 0.00562714)
(-0.00175424 -0.00582229 0.00666105)
(-0.00144791 -0.00450775 0.0066826)
(-0.00171379 -0.0065729 0.00563104)
(-0.00180423 -0.0055856 0.00774831)
(-0.00185625 -0.00570246 0.00762167)
(-0.00173839 -0.00508033 0.00740632)
(-0.00185889 -0.00425822 0.00733715)
(-0.00165774 -0.00617116 0.00676134)
(-0.0020974 -0.00445642 0.00713328)
(-0.00201259 -0.00605099 0.0069918)
(-0.00159979 -0.00548456 0.00845375)
(-0.00197839 -0.00515272 0.00845739)
(-0.00172653 -0.00665478 0.00819552)
(-0.00160824 -0.00538893 0.00825495)
(-0.00196882 -0.0047405 0.00803095)
(-0.00167603 -0.00634871 0.00761387)
(-0.00183786 -0.0045614 0.00901599)
(-0.00250907 -0.00647038 0.00815065)
(-0.00170692 -0.00531205 0.00883413)
(-0.00209156 -0.00510342 0.00820078)
(-0.00244466 -0.00458835 0.00796881)
(-0.00220251 -0.00599673 0.00771028)
(-0.0016695 -0.00472869 0.00900909)
(-0.0023791 -0.00643341 0.0081841)
(-0.00160081 -0.00562373 0.00895897)
(-0.00161311 -0.00528623 0.00823771)
(-0.00204566 -0.00494143 0.00806677)
(-0.00179263 -0.0062872 0.00780628)
(-0.00198768 -0.00447854 0.00875025)
(-0.00270275 -0.00613061 0.00799777)
(-0.00190092 -0.00528697 0.00839503)
(-0.00226666 -0.00482122 0.00817331)
(-0.00200637 -0.00623666 0.00789502)
(-0.00213563 -0.00428896 0.00881699)
(-0.0028274 -0.00595041 0.00805199)
(-0.00191336 -0.00546349 0.00878881)
(-0.00166454 -0.00421062 0.00837719)
(-0.00192235 -0.00573426 0.00701584)
(-0.00180553 -0.0038905 0.00800507)
(-0.00238181 -0.00582082 0.007085)
(-0.00200067 -0.00500208 0.00810682)
(-0.00196788 -0.00426916 0.00795108)
(-0.0018644 -0.005959 0.00739361)
(-0.002158 -0.0042267 0.00742906)
(-0.00215309 -0.00563539 0.00719072)
(-0.00183463 -0.00490366 0.00815035)
(-0.00184615 -0.0048958 0.00828194)
(-0.00206821 -0.00383104 0.00840267)
(-0.00212159 -0.00536539 0.00696954)
(-0.00221655 -0.00369248 0.008355)
(-0.00255646 -0.00561173 0.00744026)
(-0.00218766 -0.00419873 0.00879924)
(-0.00243401 -0.00554138 0.00772842)
(-0.00216607 -0.00385235 0.00872844)
(-0.00270734 -0.00563139 0.00802198)
(-0.00210583 -0.00464489 0.00785388)
(-0.00221153 -0.00400902 0.00808503)
(-0.00191513 -0.00566392 0.00744914)
(-0.00223302 -0.00411343 0.0081281)
(-0.00234821 -0.00566223 0.00769832)
(-0.00207317 -0.00494967 0.00913077)
(-0.00228725 -0.00490772 0.00941691)
(-0.00204165 -0.0050546 0.00875899)
(-0.00191451 -0.00485591 0.00865994)
(-0.00205523 -0.0041615 0.00828377)
(-0.0019727 -0.00591667 0.00668725)
(-0.00193073 -0.00401395 0.00822774)
(-0.00194255 -0.00566733 0.00664011)
(-0.00185836 -0.003978 0.00827913)
(-0.0018635 -0.00553501 0.00663448)
(-0.00180801 -0.00390632 0.00820136)
(-0.00175741 -0.00545997 0.00658885)
(-0.00172845 -0.00389655 0.00809434)
(-0.00165776 -0.00543448 0.00651607)
(-0.00164289 -0.00398322 0.00811922)
(-0.00157405 -0.00555626 0.00653417)
(-0.00159883 -0.00405067 0.00802809)
(-0.0015524 -0.00586407 0.00653153)
(-0.00142913 -0.00422046 0.00801339)
(-0.00143878 -0.00602158 0.00649401)
(-0.00203435 -0.0048677 0.00761724)
(-0.00217743 -0.00405128 0.0078171)
(-0.00180792 -0.00595553 0.00717245)
(-0.00214935 -0.00419499 0.00793677)
(-0.00215837 -0.00595596 0.00749118)
(-0.00206724 -0.004927 0.00884151)
(-0.00222583 -0.00493224 0.00916874)
(-0.00207708 -0.00415929 0.0080503)
(-0.00199909 -0.00597572 0.0075303)
(-0.00197347 -0.00413427 0.00813256)
(-0.00191063 -0.00598225 0.00756332)
(-0.00217347 -0.00509264 0.00943018)
(-0.00204483 -0.00514017 0.00954882)
(-0.00234847 -0.00419079 0.00837381)
(-0.00234019 -0.00572085 0.00788174)
(-0.00248222 -0.00433253 0.00877755)
(-0.0024238 -0.0058352 0.00822704)
(-0.00234882 -0.00500205 0.00963248)
(-0.002415 -0.00516932 0.00998799)
(-0.00237256 -0.00447227 0.00911298)
(-0.00228947 -0.00602937 0.00852148)
(-0.00219483 -0.00450325 0.00926784)
(-0.0021206 -0.00606959 0.00869263)
(-0.00232945 -0.00534825 0.0103182)
(-0.00222427 -0.00539406 0.0104464)
(-0.00180019 -0.00415239 0.00808785)
(-0.00173048 -0.00602291 0.00753185)
(-0.00165302 -0.00415216 0.00795224)
(-0.00162005 -0.00600011 0.00744256)
(-0.00184956 -0.00515807 0.00946655)
(-0.00164036 -0.00506279 0.00930056)
(-0.00160187 -0.00426477 0.00779748)
(-0.00144311 -0.00595192 0.00725778)
(-0.0015942 -0.0049906 0.00751089)
(-0.00132421 -0.00385883 0.00776616)
(-0.00158261 -0.00589034 0.00716385)
(-0.00159923 -0.00498495 0.00900431)
(-0.00154641 -0.00506833 0.00865343)
(-0.00200489 -0.00450069 0.00920097)
(-0.0019345 -0.00606587 0.00862004)
(-0.00173471 -0.00441294 0.00892765)
(-0.00164902 -0.00597439 0.00835988)
(-0.0020641 -0.00537861 0.0103721)
(-0.0018865 -0.00529555 0.0101312)
(-0.0015281 -0.00430228 0.00848957)
(-0.00143971 -0.00584585 0.00797005)
(-0.00143769 -0.00415344 0.0080605)
(-0.00130881 -0.00582588 0.00759381)
(-0.00166121 -0.00515743 0.00965556)
(-0.00155106 -0.00501847 0.00923408)
(-0.00193153 -0.00522668 0.00769683)
(-0.00174131 -0.00454628 0.00855163)
(-0.00172496 -0.00614218 0.00653106)
(-0.001611 -0.00552282 0.00807179)
(-0.00185608 -0.00495912 0.00808808)
(-0.0016724 -0.00661281 0.00747233)
(-0.00133946 -0.00439341 0.00829722)
(-0.00261244 -0.0059524 0.00683259)
(-0.00155874 -0.00433163 0.00826919)
(-0.00238088 -0.00617278 0.00685832)
(-0.0012346 -0.00547835 0.00850614)
(-0.00147106 -0.00472269 0.00875138)
(-0.00184324 -0.00622505 0.00712681)
(-0.00115543 -0.00463499 0.00855264)
(-0.00219779 -0.00624725 0.00704542)
(-0.0016746 -0.00540768 0.00822107)
(-0.0019251 -0.00493023 0.00823567)
(-0.00169721 -0.00642853 0.00754204)
(-0.00173382 -0.00465544 0.00902433)
(-0.00251789 -0.00636861 0.00788041)
(-0.00168871 -0.00560846 0.00833098)
(-0.00179889 -0.00503286 0.0081281)
(-0.00154452 -0.00663748 0.007589)
(-0.00151325 -0.00474043 0.00868041)
(-0.00228996 -0.00663309 0.00763133)
(-0.00179636 -0.0053646 0.00823343)
(-0.00163918 -0.00462973 0.00869681)
(-0.00161212 -0.00629147 0.00703927)
(-0.00140632 -0.005681 0.00896772)
(-0.0016727 -0.0045614 0.00877034)
(-0.00239481 -0.00632849 0.00750788)
(-0.00145221 -0.00555254 0.00883712)
(-0.00137371 -0.00560278 0.00779413)
(-0.00169882 -0.00512584 0.00774209)
(-0.0013393 -0.00677978 0.00723627)
(-0.00143583 -0.00483725 0.00841944)
(-0.00162709 -0.00643213 0.006902)
(-0.00132057 -0.00457849 0.00803024)
(-0.00151714 -0.00633156 0.00644021)
(-0.00145293 -0.0043205 0.00781179)
(-0.0019208 -0.0064107 0.00662445)
(-0.00166504 -0.00551788 0.00789266)
(-0.00153658 -0.00490516 0.0086716)
(-0.00132961 -0.00661524 0.00681545)
(-0.00112127 -0.00466686 0.00824477)
(-0.00149814 -0.00629711 0.00652636)
(-0.00130827 -0.00456162 0.00798269)
(-0.0018071 -0.00658194 0.00662476)
(-0.00109527 -0.00584983 0.00811623)
(-0.00152791 -0.00543154 0.0076534)
(-0.00187351 -0.00467235 0.0072787)
(-0.00154871 -0.00648784 0.00696043)
(-0.00131133 -0.00568937 0.00857995)