/*--------------------------------*- C++ -*----------------------------------*\
| =========                 |                                                 |
| \\      /  F ield         | OpenFOAM: The Open Source CFD Toolbox           |
|  \\    /   O peration     | Version:  5.0                                   |
|   \\  /    A nd           | Web:      www.OpenFOAM.org                      |
|    \\/     M anipulation  |                                                 |
\*---------------------------------------------------------------------------*/
FoamFile
{
    version     2.0;
    format      ascii;
    class       surfaceScalarField;
    location    "60";
    object      phi;
}
// * * * * * * * * * * * * * * * * * * * * * * * * * * * * * * * * * * * * * //

dimensions      [0 3 -1 0 0 0 0];

internalField   nonuniform List<scalar> 
105792
(
8.49548e-12
-5.87906e-11
-4.91438e-11
7.93192e-12
-6.015e-11
-4.84358e-11
7.29708e-12
-5.78385e-11
-4.64244e-11
6.931e-12
-5.46599e-11
-4.42831e-11
6.18934e-12
-5.12684e-11
-4.21632e-11
7.03462e-12
-4.46331e-11
-3.83087e-11
6.57171e-12
-3.63904e-11
-3.25573e-11
1.03502e-11
-2.53613e-11
-2.27953e-11
6.08991e-12
-1.34343e-11
-1.24385e-11
8.43591e-13
-2.33828e-11
-2.14347e-11
8.40496e-13
-5.26066e-11
-4.03033e-11
3.45103e-12
-4.63123e-11
-2.83744e-11
3.64188e-12
-4.15809e-11
-2.43515e-11
8.03198e-12
-3.07834e-11
-1.6459e-11
3.83716e-12
-1.4424e-11
-8.26301e-12
-1.67091e-12
-1.96596e-11
-1.44908e-11
5.62028e-12
-3.5015e-11
-2.59228e-11
3.43713e-12
-1.68669e-11
-9.20351e-12
-4.10252e-12
-2.39861e-11
-1.44102e-11
4.6919e-12
-3.8202e-11
-2.56092e-11
2.12637e-12
-1.53302e-11
-8.65902e-12
-4.53266e-12
-2.28714e-11
-1.40221e-11
4.58684e-12
-4.10176e-11
-2.51094e-11
1.93707e-12
-1.62783e-11
-8.24292e-12
-3.46081e-12
-2.03099e-11
-1.25909e-11
3.56132e-12
-3.55426e-11
-2.19833e-11
1.14671e-12
-1.36234e-11
-6.84976e-12
1.89119e-12
-1.6676e-11
-9.96923e-12
2.45243e-12
-1.88867e-11
-1.06717e-11
3.00416e-12
-2.02735e-11
-1.15567e-11
-4.05005e-14
-2.27324e-11
-1.18306e-11
-5.80589e-12
-3.00448e-11
-1.41299e-11
1.60878e-12
-4.67085e-11
-2.36327e-11
7.18389e-13
-1.50597e-11
-6.83682e-12
-1.50613e-13
-1.67901e-11
-9.8759e-12
8.26776e-13
-1.72045e-11
-1.01477e-11
9.27622e-13
-1.76834e-11
-1.0475e-11
5.95061e-13
-1.77802e-11
-1.02297e-11
1.76075e-12
-1.73307e-11
-9.83783e-12
4.67538e-13
-1.6018e-11
-8.97958e-12
-1.83172e-13
-1.41804e-11
-6.32786e-12
6.60137e-12
-4.46776e-11
-2.26637e-11
2.85664e-13
-2.93024e-11
-1.14257e-11
-7.44118e-13
-2.71319e-11
-1.0349e-11
7.76103e-13
-2.09662e-11
-8.97233e-12
-1.59531e-12
-1.63276e-11
-6.86941e-12
1.11304e-11
-4.67012e-11
-2.49987e-11
1.30672e-12
-3.05372e-11
-1.233e-11
1.07545e-13
-2.33706e-11
-1.08649e-11
-1.56269e-12
-2.03179e-11
-9.64221e-12
-2.93581e-12
-7.20339e-12
-1.77499e-11
7.67729e-12
-4.60313e-11
-2.54763e-11
-4.7356e-13
-2.67675e-11
-1.18729e-11
-2.93907e-12
-8.2391e-12
-2.0705e-11
7.63147e-12
-5.01907e-11
-2.69295e-11
-9.18212e-13
-1.23302e-11
-2.84082e-11
-3.16189e-12
-8.50033e-12
-2.10098e-11
6.88714e-12
-2.78974e-11
-5.03464e-11
-3.52185e-13
-1.22788e-11
-2.80804e-11
-4.58045e-12
-8.95524e-12
-2.16702e-11
7.94515e-12
-2.77019e-11
-5.00511e-11
-3.53414e-12
-1.23772e-11
-2.67278e-11
-4.64492e-12
-7.55816e-12
-1.66302e-11
-9.64709e-13
-2.02e-11
-3.43016e-11
6.33172e-12
-2.91083e-11
-4.73984e-11
7.91282e-12
-4.08036e-11
-5.94359e-11
-2.24069e-12
-1.35219e-11
-2.74823e-11
-7.81592e-12
-8.6379e-12
-1.9664e-11
-2.59382e-12
-1.94804e-11
-4.49671e-11
-1.66614e-12
-2.6998e-11
-6.03267e-11
1.59087e-13
-2.99439e-11
-6.42036e-11
7.07678e-13
-3.12951e-11
-6.73548e-11
1.09041e-12
-3.14155e-11
-6.74115e-11
9.78667e-13
-3.18233e-11
-6.74433e-11
8.63875e-13
-3.13192e-11
-6.62223e-11
7.14513e-13
-3.10965e-11
-6.52774e-11
8.02418e-13
-3.01737e-11
-6.33258e-11
8.51042e-13
-2.95171e-11
-6.15206e-11
1.38467e-12
-2.82113e-11
-5.85071e-11
2.32377e-12
-2.60382e-11
-5.39592e-11
3.00878e-12
-2.16028e-11
-4.4612e-11
6.21769e-12
-1.4811e-11
-3.05801e-11
2.77273e-12
-5.10188e-12
-1.36254e-11
-4.92402e-12
-7.99505e-12
-2.09325e-11
-3.07212e-12
-2.52529e-11
-4.58409e-11
3.66728e-12
-1.40025e-11
-2.8915e-11
6.30167e-13
-3.93126e-12
-9.86538e-12
-3.31692e-12
-6.37718e-12
-1.39779e-11
-2.93603e-12
-2.13795e-11
-3.80368e-11
3.41023e-12
-1.11277e-11
-2.61993e-11
2.36077e-13
-2.5899e-12
-8.18692e-12
-2.92817e-12
-4.14768e-12
-9.95597e-12
-2.33878e-12
-1.68559e-11
-2.65883e-11
1.87871e-12
-8.64537e-12
-1.82598e-11
-4.83462e-13
-1.49197e-12
-5.81282e-12
-2.68244e-12
-3.12412e-12
-8.80666e-12
1.81525e-12
-1.02323e-11
-1.90703e-11
3.7211e-13
-9.79749e-13
-5.60778e-12
2.41002e-13
-1.42384e-12
-7.14903e-12
1.26332e-14
-1.39785e-12
-8.3313e-12
-2.01314e-12
-1.62913e-12
-7.5764e-12
3.44816e-13
-7.40755e-12
-1.4842e-11
-2.14933e-13
-1.86507e-13
-3.6231e-12
-4.8858e-13
-3.9899e-12
-1.98639e-13
-4.83933e-13
8.54672e-14
-4.53434e-12
-3.05243e-13
-6.52253e-12
7.3234e-12
-3.21924e-11
-2.65443e-11
6.8107e-12
-3.30951e-11
-2.65451e-11
6.20291e-12
-3.20304e-11
-2.52031e-11
5.59355e-12
-3.0254e-11
-2.37994e-11
4.67336e-12
-2.82007e-11
-2.21514e-11
4.11767e-12
-2.48803e-11
-1.92014e-11
3.65831e-12
-2.14258e-11
-1.45092e-11
3.96928e-12
-1.69478e-11
-8.72818e-12
6.34115e-12
-4.90769e-12
-1.09011e-11
-9.66075e-12
3.1934e-12
-1.05744e-11
2.72043e-11
-6.16395e-13
-1.32011e-11
-2.30554e-11
1.55076e-12
-2.3761e-11
4.27979e-13
-2.27166e-11
-2.24747e-11
2.21426e-12
-1.77811e-11
-2.55904e-11
3.28402e-12
-8.87819e-12
-2.29786e-11
4.47219e-12
-4.39346e-12
-1.12208e-11
-8.80434e-12
1.01999e-12
-7.40235e-12
2.03342e-11
-6.58008e-12
-1.59021e-11
-6.66095e-12
3.48593e-13
-1.40095e-11
4.79243e-12
-6.9101e-12
-1.44029e-11
-1.10988e-11
2.18105e-13
-8.31272e-12
2.29007e-11
-6.99574e-12
-1.90951e-11
-7.91427e-12
-2.28273e-13
-1.48541e-11
3.63632e-12
-6.67228e-12
-1.25234e-11
-1.11813e-11
2.09933e-13
-8.26299e-12
2.42724e-11
-8.72066e-12
-7.16683e-12
-1.95695e-11
-1.03014e-12
-1.55032e-11
3.64591e-12
-6.52128e-12
-1.4434e-11
-9.74381e-12
5.72799e-13
-7.49177e-12
2.10205e-11
-6.68088e-12
-6.75072e-12
-1.7336e-11
-7.55271e-13
-1.31919e-11
6.28196e-13
-5.01272e-12
-9.99415e-12
-1.1863e-11
1.13841e-12
-5.32456e-12
-5.07507e-12
1.33129e-12
-5.54766e-12
-2.57332e-12
8.00552e-12
-2.94622e-12
-3.02603e-12
-7.11188e-12
1.46874e-11
-4.77763e-12
-5.74675e-13
3.47205e-12
-6.53347e-12
-1.08731e-11
1.5419e-12
-7.46912e-12
1.46162e-11
-6.30329e-12
-1.36077e-11
-5.58075e-12
1.94807e-12
-8.52074e-12
-1.71298e-11
2.17041e-13
-1.11823e-11
2.93118e-11
-9.54e-12
-2.61984e-11
-1.07064e-11
-1.89313e-12
-1.52844e-11
2.96584e-13
-5.1879e-12
-1.20616e-11
-1.18899e-11
7.00972e-13
-5.30555e-12
-7.88269e-12
1.56782e-12
-4.69546e-12
-8.81108e-13
-5.93623e-12
2.35638e-12
-1.86342e-12
-2.44176e-12
8.16078e-12
-3.99277e-12
-3.11505e-12
-6.99199e-12
8.18656e-12
1.67533e-12
6.54046e-13
1.20751e-11
1.02877e-12
-3.35169e-12
6.52134e-13
-5.0816e-12
-1.23196e-11
9.70492e-13
-5.68176e-12
-8.11451e-12
1.85514e-12
-5.03339e-12
-6.17982e-12
2.44441e-12
-2.70405e-12
8.26493e-12
-7.28342e-12
-3.11489e-12
-4.04881e-12
8.39594e-12
1.67778e-12
6.37168e-13
1.24327e-11
1.16558e-12
-3.34778e-12
7.47337e-13
-5.12364e-12
-1.22971e-11
1.16361e-12
-5.44973e-12
-8.12757e-12
1.99621e-12
-4.9996e-12
-5.9652e-12
2.28132e-12
-2.76554e-12
7.55787e-12
-3.89393e-12
-2.79862e-12
-6.83104e-12
7.90302e-12
1.37706e-12
5.59518e-13
1.13799e-11
1.16636e-12
-2.64694e-12
9.97153e-13
-4.4721e-12
-1.15337e-11
3.93535e-12
-5.58491e-12
-7.26014e-12
1.06698e-12
-4.17475e-12
-5.08278e-12
1.56805e-12
-2.36863e-12
5.41666e-12
-3.26423e-12
-1.91533e-12
-5.32166e-12
7.45977e-12
-2.23318e-13
-2.51872e-13
1.03643e-11
-2.08237e-12
2.43514e-13
1.6016e-11
2.68503e-11
-2.35778e-11
-8.92685e-12
-2.04698e-12
-3.20668e-12
-8.0315e-12
-1.59379e-11
9.85467e-11
1.36429e-12
-8.89859e-11
-5.39708e-12
-2.14687e-11
-4.80905e-12
-3.77784e-11
1.08525e-11
-2.66831e-11
-3.64081e-11
2.80593e-11
-1.44801e-10
-1.93718e-11
-3.96408e-11
3.81547e-11
-1.99849e-10
-1.91866e-11
-4.46741e-11
3.92906e-11
-2.16675e-10
-1.94931e-11
-4.99836e-11
4.3744e-11
-2.51933e-10
-2.17e-11
-5.60056e-11
4.91183e-11
-2.98132e-10
-2.29003e-11
-6.42738e-11
5.49144e-11
-3.59181e-10
-2.58784e-11
-7.89346e-11
6.15227e-11
-3.98779e-10
-3.00595e-11
-9.59384e-11
7.33319e-11
-4.37449e-10
-3.32241e-11
-1.13528e-10
8.94269e-11
-4.88882e-10
-3.64223e-11
-1.30994e-10
1.04042e-10
-5.35279e-10
-3.70677e-11
-1.51304e-10
1.22566e-10
-5.93832e-10
-3.59149e-11
-1.70255e-10
1.40825e-10
-6.49051e-10
-3.25059e-11
-1.90312e-10
1.60052e-10
-7.13718e-10
-2.67815e-11
-2.08035e-10
1.76893e-10
-7.68939e-10
-2.08326e-11
-2.24982e-10
1.94659e-10
-8.23852e-10
-1.13384e-11
-2.38848e-10
2.08735e-10
-8.60197e-10
-1.87893e-14
-2.52366e-10
2.21602e-10
-8.90071e-10
1.1247e-11
-2.63699e-10
2.33509e-10
-9.00822e-10
2.61439e-11
-2.75019e-10
2.44292e-10
-9.14525e-10
4.05631e-11
-2.85536e-10
2.54811e-10
-9.17769e-10
5.5451e-11
-2.94394e-10
2.63601e-10
-9.27015e-10
7.04727e-11
-3.01234e-10
2.70226e-10
-9.27437e-10
8.56221e-11
-3.06635e-10
2.75482e-10
-9.37154e-10
1.00473e-10
-3.10301e-10
2.78854e-10
-9.41571e-10
1.14462e-10
-3.10418e-10
2.7898e-10
-9.44616e-10
1.26938e-10
-3.11031e-10
2.79238e-10
-9.45741e-10
1.37421e-10
-3.075e-10
2.75619e-10
-9.35255e-10
1.46258e-10
-3.03117e-10
2.70218e-10
-9.0591e-10
1.52005e-10
-2.93385e-10
2.61375e-10
-8.58435e-10
1.56283e-10
-2.83823e-10
2.50804e-10
-7.89471e-10
1.58871e-10
-2.68865e-10
2.35277e-10
-7.07598e-10
1.57603e-10
2.20136e-10
-6.15399e-10
1.54253e-10
2.00122e-10
-5.30704e-10
1.46614e-10
1.81421e-10
-4.47935e-10
1.36398e-10
1.59358e-10
-3.79003e-10
1.23086e-10
1.38638e-10
-3.16108e-10
1.07355e-10
1.16178e-10
-2.6713e-10
9.01529e-11
9.75898e-11
-2.2771e-10
7.22327e-11
7.81736e-11
-1.99241e-10
5.54728e-11
6.12938e-11
-1.79147e-10
4.02303e-11
4.60919e-11
-1.59459e-10
2.92597e-11
3.57426e-11
-1.44325e-10
2.16937e-11
2.76747e-11
-1.2564e-10
1.5945e-11
2.17866e-11
-9.14361e-11
1.14997e-11
1.71326e-11
-6.85527e-11
1.23383e-11
-4.92596e-11
-1.81452e-10
-2.98904e-10
-8.46457e-10
-1.76301e-10
-3.13762e-10
-9.40024e-10
-1.69111e-10
-3.2284e-10
-1.01722e-09
-1.5974e-10
-3.32562e-10
-1.07266e-09
-1.47795e-10
-3.36476e-10
-1.10364e-09
-1.33476e-10
-3.39859e-10
-1.11448e-09
-1.17351e-10
-3.38695e-10
-1.11156e-09
-1.00223e-10
-3.38428e-10
-1.10712e-09
-8.27383e-11
-3.34309e-10
-1.10068e-09
-6.53804e-11
-3.28699e-10
-1.08856e-09
-4.81569e-11
-3.21625e-10
-1.08729e-09
-3.14788e-11
-3.12829e-10
-1.07593e-09
-1.42239e-11
-3.02641e-10
-1.07246e-09
-1.08141e-12
-2.91055e-10
-1.05387e-09
1.17793e-11
-2.80349e-10
-1.04333e-09
2.38269e-11
-2.67472e-10
-1.00668e-09
3.14459e-11
-2.53571e-10
-9.61621e-10
3.85886e-11
-2.37244e-10
-8.97419e-10
4.4217e-11
-2.1986e-10
-8.30138e-10
4.70891e-11
-1.99161e-10
-7.51928e-10
4.72941e-11
-1.8001e-10
-6.86815e-10
4.42494e-11
-1.59103e-10
-6.20385e-10
4.03987e-11
-1.40498e-10
-5.70484e-10
3.50989e-11
-1.20415e-10
-5.16592e-10
2.80855e-11
-1.03316e-10
-4.70269e-10
2.36927e-11
-8.6e-11
-4.21446e-10
2.13375e-11
-7.08586e-11
-3.76721e-10
2.21574e-11
-5.81871e-11
-3.3222e-10
2.16128e-11
-5.14596e-11
-2.69852e-10
1.94632e-11
-4.57961e-11
-2.29436e-10
1.88377e-11
-4.29399e-11
-1.94528e-10
2.50176e-11
-3.9527e-11
-1.64477e-10
1.88402e-11
-3.63604e-11
1.54657e-11
-9.00302e-11
1.75068e-12
-4.73378e-12
-3.6448e-12
-2.16025e-13
-3.32278e-12
-1.06017e-13
-2.05053e-13
-4.74491e-12
-2.35581e-12
-2.56941e-12
2.47728e-13
-1.456e-12
1.11281e-12
-6.75758e-12
3.35944e-12
2.93016e-12
-1.03145e-11
2.51362e-12
9.62018e-12
-3.72572e-12
-2.30341e-11
4.33245e-12
4.6547e-12
-1.78429e-11
-7.05114e-11
4.68407e-12
-2.91782e-13
-2.572e-11
-7.04425e-12
3.04503e-12
-7.30698e-12
7.11175e-13
-6.73471e-13
-5.34774e-12
1.86894e-12
-2.56388e-12
-1.26542e-12
5.25203e-12
-3.50529e-12
-1.85927e-12
-5.23566e-12
5.27511e-12
2.97202e-13
1.54875e-12
5.07505e-12
5.34243e-13
3.77577e-13
8.38925e-12
9.86351e-12
-3.32783e-12
-9.84935e-12
-1.74425e-12
1.63382e-11
-1.35044e-12
-4.8533e-12
2.19426e-11
-1.07796e-11
2.2235e-13
-8.61755e-12
6.18062e-13
-5.0235e-12
-1.36277e-11
3.98997e-12
-6.07209e-12
-1.05657e-11
5.63649e-13
-4.97603e-12
-6.93453e-12
1.80053e-12
-2.95324e-12
-2.47912e-12
6.57387e-12
-2.40914e-12
-4.18035e-12
-6.92105e-12
8.66143e-12
-4.57233e-13
1.69336e-13
1.1057e-11
4.89416e-14
-1.88193e-12
1.90511e-11
2.91857e-11
-1.03158e-11
-2.68665e-11
-3.46943e-12
7.15907e-13
-8.73196e-12
-1.69946e-11
1.09318e-10
9.28003e-13
-3.90579e-12
-1.02215e-10
-2.11216e-11
-9.87665e-13
-3.9225e-11
1.16094e-11
-2.58087e-11
-3.83776e-11
3.06687e-11
-1.5178e-10
-1.83703e-11
-4.28433e-11
3.99288e-11
-2.06666e-10
-1.78162e-11
-4.95604e-11
4.23716e-11
-2.25527e-10
-1.6694e-11
-5.32879e-11
4.65367e-11
-2.54009e-10
-1.82972e-11
-5.7888e-11
5.04194e-11
-2.7945e-10
-1.89872e-11
-6.61004e-11
5.53169e-11
-3.20113e-10
-1.88716e-11
-7.59474e-11
6.13319e-11
-3.73679e-10
-1.88103e-11
-9.27306e-11
7.0874e-11
-4.1214e-10
-1.74286e-11
-1.11779e-10
8.21502e-11
-4.44424e-10
-1.58685e-11
-1.29219e-10
9.76675e-11
-4.87078e-10
-1.35754e-11
-1.4516e-10
1.14178e-10
-5.24375e-10
-9.87093e-12
-1.62356e-10
1.30551e-10
-5.59106e-10
-4.92441e-12
-1.76163e-10
1.43188e-10
-5.79123e-10
2.09513e-12
-1.89312e-10
1.54521e-10
-5.99337e-10
9.25794e-12
-1.99707e-10
1.63981e-10
-6.0356e-10
1.90488e-11
-2.10954e-10
1.73808e-10
-6.1371e-10
2.79703e-11
-2.20299e-10
1.82264e-10
-6.11228e-10
3.7983e-11
-2.28983e-10
1.91078e-10
-6.17751e-10
4.79761e-11
-2.36139e-10
1.97365e-10
-6.14701e-10
5.7616e-11
-2.4042e-10
2.02188e-10
-6.17239e-10
6.7044e-11
-2.44212e-10
2.05979e-10
-6.16379e-10
7.59578e-11
-2.44595e-10
2.06749e-10
-6.15759e-10
8.48903e-11
-2.44564e-10
2.06339e-10
-6.11417e-10
9.18793e-11
-2.40558e-10
2.02411e-10
-6.01778e-10
9.72464e-11
-2.34963e-10
1.95788e-10
-5.79795e-10
1.01792e-10
-2.2524e-10
1.85558e-10
-5.50814e-10
1.04369e-10
-2.13658e-10
1.73839e-10
-5.05522e-10
1.04154e-10
-1.99153e-10
1.60122e-10
-4.57411e-10
1.00259e-10
-1.83118e-10
1.454e-10
-3.99857e-10
9.3773e-11
-1.63976e-10
1.26668e-10
-3.50278e-10
8.38281e-11
-1.44699e-10
1.08846e-10
-3.01144e-10
7.30746e-11
-1.23897e-10
9.07471e-11
-2.63176e-10
5.91038e-11
-1.04399e-10
7.28796e-11
-2.24054e-10
4.77812e-11
-8.43706e-11
-2.01681e-10
5.67841e-11
3.82306e-11
-6.90317e-11
-1.8238e-10
4.72813e-11
2.88881e-11
-5.32332e-11
3.88625e-11
-1.64813e-10
2.41147e-11
-4.08309e-11
3.27383e-11
-1.48836e-10
1.94986e-11
-3.26336e-11
2.78666e-11
-1.29215e-10
1.5118e-11
-2.78234e-11
2.21513e-11
-9.705e-11
1.06255e-11
-2.28129e-11
1.74283e-11
-7.62575e-11
7.30608e-12
-1.71419e-11
1.30186e-11
-5.72458e-11
7.20786e-12
-1.30661e-11
-4.4763e-11
1.16415e-11
2.23592e-12
-1.02042e-11
-2.00178e-11
3.29894e-12
-4.76235e-13
4.37442e-12
-3.71118e-12
4.1532e-12
-6.96038e-12
-2.76353e-11
-1.25196e-12
3.12488e-13
1.80362e-12
-6.12771e-13
-2.49314e-12
3.31217e-13
-8.75316e-13
1.78514e-12
-3.13208e-12
3.9253e-13
-7.1995e-13
9.66437e-13
-2.61359e-12
3.83799e-13
-3.29255e-12
2.39055e-12
-5.6348e-12
3.37157e-12
-7.32551e-12
6.97547e-12
-9.72801e-12
3.35404e-12
-2.99283e-12
3.7321e-12
-1.07214e-11
1.91428e-12
-3.22899e-12
2.30801e-12
1.63627e-12
-3.25011e-12
1.48961e-12
1.00348e-11
2.40568e-12
-9.59001e-13
9.54951e-12
2.94998e-12
-5.50428e-13
1.07401e-11
-6.62878e-13
6.02508e-13
1.48161e-12
2.9925e-12
1.36547e-12
2.29128e-12
3.89218e-13
1.12503e-12
1.20377e-12
1.25811e-12
-9.04954e-12
1.41323e-12
1.86342e-12
1.21245e-12
9.57789e-13
1.02023e-10
-8.13918e-12
4.10072e-12
-4.67001e-12
1.23398e-11
9.34964e-11
-9.95627e-12
3.1898e-12
-4.8525e-13
1.57788e-11
8.50116e-11
-8.87488e-12
1.1348e-12
1.3935e-11
-9.06993e-12
1.07061e-11
1.6628e-11
-2.07502e-10
-9.95007e-10
-2.00759e-10
-1.09442e-09
-1.9192e-10
-3.49028e-10
-1.17312e-09
-1.80775e-10
-3.58565e-10
-1.23074e-09
-1.66929e-10
-3.61802e-10
-1.26089e-09
-1.5057e-10
-3.6479e-10
-1.27223e-09
-1.32349e-10
-3.6285e-10
-1.26774e-09
-1.13118e-10
-3.62213e-10
-1.26362e-09
-9.35659e-11
-3.57522e-10
-1.25547e-09
-7.41562e-11
-3.51647e-10
-1.24235e-09
-5.49225e-11
-3.4437e-10
-1.24002e-09
-3.62573e-11
-3.35832e-10
-1.22795e-09
-1.84067e-11
-3.26027e-10
-1.22359e-09
-1.9483e-12
-3.15085e-10
-1.2038e-09
1.28332e-11
-3.05134e-10
-1.19259e-09
2.5554e-11
-2.93082e-10
-1.15382e-09
3.68396e-11
-2.805e-10
-1.10593e-09
4.53755e-11
-2.63703e-10
-1.03393e-09
5.25983e-11
-2.47143e-10
-9.60368e-10
5.85457e-11
-2.26741e-10
-8.71942e-10
5.98278e-11
-2.07672e-10
-7.95865e-10
5.86153e-11
-1.86363e-10
-7.20434e-10
5.45053e-11
-1.67216e-10
-6.63889e-10
4.88818e-11
-1.46342e-10
-6.0376e-10
4.11787e-11
-1.27492e-10
-5.567e-10
3.32023e-11
-1.07917e-10
-5.02366e-10
2.80828e-11
-9.16627e-11
-4.51442e-10
2.50746e-11
-7.3979e-11
-3.9669e-10
2.33417e-11
-6.16068e-11
-3.32726e-10
2.2128e-11
-5.45863e-11
-2.80067e-10
2.38015e-11
-5.10584e-11
-2.43041e-10
2.55581e-11
-4.64485e-11
-2.05724e-10
2.85496e-11
-1.72683e-10
-3.90858e-11
1.9538e-11
-9.52179e-11
-3.58244e-11
1.67787e-11
1.52952e-12
-5.64061e-12
-5.42401e-12
-2.73842e-13
-4.82896e-12
-3.21252e-13
-3.95265e-13
-5.51918e-12
-2.76311e-12
-2.99772e-12
2.41604e-13
-2.0233e-12
8.14461e-13
-7.07349e-12
3.25533e-12
3.16973e-12
-1.14452e-11
2.35974e-12
-3.11888e-12
-1.81586e-11
-4.8742e-12
-7.68728e-11
7.86856e-12
-1.78055e-11
-1.45453e-10
-3.54519e-11
3.67274e-12
-8.02121e-11
-1.78824e-11
-7.35312e-13
-3.28014e-12
2.51758e-12
5.17013e-12
-2.03266e-12
2.71399e-12
5.51805e-12
-6.93495e-12
3.27559e-12
2.96367e-12
-1.15517e-11
-2.22981e-13
3.33648e-13
3.72469e-13
5.64648e-12
2.43764e-13
-1.8797e-11
1.30813e-12
-3.05403e-11
-3.31677e-11
1.73217e-11
-9.14931e-11
-2.96584e-11
-3.71129e-11
-1.73407e-10
-3.05922e-11
-4.47667e-11
-2.13369e-10
-2.82311e-11
-5.09386e-11
-2.78739e-10
-2.57875e-11
-5.70919e-11
-3.27248e-10
-2.69064e-11
-6.6526e-11
-3.7244e-10
-3.03351e-11
-8.13138e-11
-4.22908e-10
-3.75569e-11
-9.55409e-11
-4.74354e-10
-4.46658e-11
-1.14348e-10
-5.31798e-10
-5.44848e-11
-1.32241e-10
-5.74384e-10
-6.13777e-11
-1.53404e-10
-6.31214e-10
-6.7178e-11
-1.72444e-10
-6.80008e-10
-7.00105e-11
-1.9359e-10
-7.47451e-10
-6.92247e-11
-2.13147e-10
-8.12302e-10
-6.67421e-11
-2.33544e-10
-8.95601e-10
-5.8944e-11
-2.52456e-10
-9.77254e-10
-5.00209e-11
-2.71896e-10
-1.06827e-09
-3.92498e-11
-2.8737e-10
-1.13912e-09
-2.67419e-11
-3.02938e-10
-1.2127e-09
-1.2331e-11
-3.14051e-10
-1.2552e-09
4.08055e-12
-3.24655e-10
-1.29365e-09
2.20267e-11
-3.33343e-10
-1.30209e-09
4.12658e-11
-3.43149e-10
-1.32338e-09
6.12527e-11
-3.52263e-10
-1.32687e-09
8.18367e-11
-3.60365e-10
-1.34029e-09
1.02615e-10
-3.67837e-10
-1.34231e-09
1.23603e-10
-3.73956e-10
-1.35652e-09
1.44384e-10
-3.79386e-10
-1.3647e-09
1.64329e-10
-3.80596e-10
-1.36802e-09
1.82603e-10
-3.83622e-10
-1.37245e-09
1.98558e-10
-3.81404e-10
-1.36141e-09
2.11992e-10
-3.79487e-10
-1.33484e-09
-3.70835e-10
-1.28117e-09
-2.31152e-10
-1.38235e-09
-2.14647e-10
-1.42981e-09
-1.96042e-10
-3.9327e-10
-1.45261e-09
-1.75636e-10
-3.94167e-10
-1.46416e-09
-1.54006e-10
-3.89678e-10
-1.46078e-09
-1.31857e-10
-3.87654e-10
-1.45939e-09
-1.09696e-10
-3.81291e-10
-1.45144e-09
-8.78384e-11
-3.74896e-10
-1.43688e-09
-6.62445e-11
-3.67215e-10
-1.43398e-09
-4.52062e-11
-3.59739e-10
-1.41948e-09
-2.48127e-11
-3.51541e-10
-1.41492e-09
-5.42974e-12
-3.43398e-10
-1.39256e-09
1.26559e-11
-3.36559e-10
-1.3851e-09
2.8989e-11
-3.28224e-10
-1.34959e-09
4.34397e-11
-3.1946e-10
-1.31348e-09
5.61196e-11
-3.06192e-10
-1.24731e-09
6.67535e-11
-2.92858e-10
-1.18454e-09
7.49924e-11
-2.7514e-10
-1.09805e-09
8.06893e-11
-2.58101e-10
-1.0172e-09
8.21888e-11
-2.37631e-10
-9.27331e-10
8.13528e-11
-2.19418e-10
-8.55076e-10
7.69732e-11
-1.97978e-10
-7.7618e-10
7.00181e-11
-1.7887e-10
-7.20568e-10
6.12702e-11
-1.57486e-10
-6.58483e-10
5.27175e-11
-1.38591e-10
-6.16417e-10
4.37212e-11
-1.18106e-10
-5.60822e-10
3.72545e-11
-1.0127e-10
-5.13672e-10
3.13672e-11
-8.46423e-11
-4.51857e-10
3.0871e-11
-7.24735e-11
-3.94718e-10
3.14937e-11
-6.05771e-11
-3.35991e-10
3.15942e-11
-5.20385e-11
-2.64235e-10
3.15448e-11
-4.31235e-11
-2.10464e-10
3.45002e-11
-1.69501e-10
-3.15503e-11
1.43748e-11
-1.01937e-10
-1.25783e-11
8.18704e-13
-4.00402e-12
-5.20556e-12
-3.20466e-13
-4.69206e-12
-1.93312e-13
-2.08273e-13
-4.1163e-12
-2.8725e-12
-2.74787e-12
2.23506e-13
-1.98469e-12
3.7926e-13
-5.38375e-12
2.74601e-12
2.99605e-12
-1.04741e-11
2.27987e-12
-3.84693e-12
-1.51026e-11
-7.75002e-11
-9.67472e-12
1.43009e-11
-3.06602e-11
-1.4454e-10
-2.37064e-11
-9.25901e-11
-1.57144e-11
2.64129e-13
-1.43143e-11
-2.9483e-12
-3.12982e-12
-7.24649e-11
3.07918e-12
-2.35969e-11
5.606e-12
-2.22702e-12
-7.63829e-12
-7.13992e-12
-3.57861e-12
-1.0485e-12
-4.35728e-12
2.89533e-12
-3.01423e-12
-2.66419e-12
7.63662e-12
-5.95764e-12
-2.81245e-12
-3.22588e-12
1.02981e-12
1.02929e-11
-2.87251e-11
-6.58585e-12
6.59218e-11
6.76905e-12
-6.21055e-11
-1.29741e-11
1.26759e-11
2.82365e-12
-1.13203e-11
2.52344e-12
-2.36706e-11
6.55149e-12
-2.97824e-11
1.08216e-11
-2.6646e-13
-4.10977e-11
-1.18035e-11
-1.52623e-12
2.49111e-11
-3.15346e-13
-1.6186e-12
-1.71776e-11
1.15629e-11
-4.41368e-12
1.65146e-12
-6.69104e-13
-7.59193e-12
2.50765e-12
-1.36932e-12
2.03877e-12
-9.57721e-12
3.2782e-12
-2.25887e-12
9.63835e-13
1.15364e-11
-1.0556e-11
-4.49524e-12
-6.06395e-12
7.39504e-12
2.09938e-12
5.3186e-12
4.33111e-12
1.28483e-12
4.28669e-12
6.05231e-13
1.48425e-12
-3.81719e-12
1.43404e-12
1.90399e-13
-6.46797e-12
2.06383e-12
1.87106e-12
-7.68742e-12
2.42181e-12
8.95248e-13
7.72007e-12
-4.91976e-12
-2.81926e-12
-7.66947e-12
6.1763e-12
3.36594e-13
3.62691e-12
3.51179e-12
1.12238e-12
3.60466e-12
6.36078e-13
1.04469e-12
-3.20286e-12
-6.40624e-13
-5.36746e-12
1.6381e-12
1.64658e-12
-1.00586e-11
2.17739e-12
2.84793e-12
-9.48288e-12
3.60597e-12
-4.51021e-12
3.26338e-13
9.5553e-12
-6.06033e-12
-3.33271e-12
-9.6458e-12
7.9649e-12
5.485e-13
4.64688e-12
4.65705e-12
1.17354e-12
4.31083e-12
7.17071e-13
2.07286e-12
-3.79616e-12
2.77756e-12
-1.23831e-13
-6.31436e-12
1.72859e-12
1.96236e-12
-1.14498e-11
2.4381e-12
3.24467e-12
-1.0846e-11
3.79608e-12
-4.98642e-12
5.85184e-13
1.01301e-11
-6.38063e-12
-3.99239e-12
-1.06037e-11
8.87356e-12
4.3231e-13
4.61941e-12
5.12292e-12
1.57354e-12
4.61425e-12
3.78605e-12
7.17013e-13
2.34783e-12
5.75579e-12
5.94435e-12
-2.189e-12
-5.72621e-12
-2.21425e-12
3.5267e-13
4.71636e-12
2.90025e-12
6.16004e-12
3.47297e-13
4.37175e-12
6.29417e-13
1.45598e-12
-1.37463e-12
-1.72435e-11
8.2148e-12
-1.81819e-12
1.19317e-11
-3.66395e-12
-2.33353e-11
3.56347e-11
1.02224e-13
2.49997e-11
-4.75404e-12
-4.40525e-11
3.20948e-11
1.19415e-11
-2.66904e-12
1.2379e-11
1.08067e-11
-9.22169e-13
4.16351e-12
1.96579e-12
3.02009e-12
3.23014e-12
-1.24358e-12
3.62593e-12
2.70912e-12
2.59256e-12
5.25013e-12
-7.12063e-12
2.89692e-13
2.99257e-13
5.25555e-12
2.84212e-13
-1.92342e-11
2.35133e-12
-2.43719e-11
-1.07467e-10
1.63353e-11
-1.57697e-11
-1.80327e-10
-1.80137e-11
-2.04934e-10
-2.12817e-11
-2.43328e-10
-2.0368e-11
-3.03457e-10
-1.92213e-11
-3.38513e-10
-2.13907e-11
-3.65028e-10
-2.27598e-11
-4.02762e-10
-2.40768e-11
-4.43781e-10
-2.55692e-11
-4.9242e-10
-2.49084e-11
-5.40456e-10
-2.29278e-11
-5.9266e-10
-2.01241e-11
-6.35583e-10
-1.47097e-11
-6.80576e-10
-7.5695e-12
-7.07711e-10
6.86437e-13
-7.32738e-10
1.12327e-11
-7.40221e-10
2.202e-11
-7.51613e-10
3.32619e-11
-7.51925e-10
4.64366e-11
-7.60154e-10
5.81588e-11
-7.59114e-10
7.10174e-11
-7.65067e-10
8.31281e-11
-7.66795e-10
9.45907e-11
-7.68489e-10
1.0491e-10
-7.66517e-10
1.14768e-10
-7.57244e-10
1.20853e-10
-7.30306e-10
1.26394e-10
-6.93618e-10
1.30334e-10
-6.35143e-10
1.30972e-10
-5.71051e-10
1.29188e-10
-4.95876e-10
1.23538e-10
-4.29025e-10
1.14843e-10
-3.61323e-10
1.03639e-10
-3.07834e-10
9.00618e-11
-2.58786e-10
7.47621e-11
-2.26182e-10
6.03573e-11
-1.99098e-10
4.52573e-11
-1.77225e-10
3.45163e-11
-1.60439e-10
2.55232e-11
-1.44273e-10
2.03849e-11
-1.29064e-10
1.55024e-11
-1.07443e-10
1.12677e-11
-7.37489e-11
7.73097e-12
-5.3674e-11
-4.2722e-11
5.46954e-12
3.2113e-12
-8.3013e-12
-1.31431e-11
-2.99575e-11
8.93527e-13
-2.84307e-14
-1.33412e-11
-2.07109e-12
3.11617e-12
2.28665e-13
-2.73378e-12
2.82246e-13
-9.18627e-13
6.74509e-12
-4.80176e-13
-2.22956e-12
1.86073e-13
-9.5467e-13
7.85497e-14
-3.78783e-12
-4.24249e-13
4.07942e-13
-2.04152e-12
-1.0056e-13
-1.77053e-12
1.24436e-13
-3.01106e-13
2.10163e-13
-1.87916e-13
-1.76307e-12
1.46115e-12
1.96045e-13
-1.81485e-13
-1.7773e-12
2.21231e-12
2.24529e-13
-1.78148e-13
-7.97644e-13
2.33509e-12
3.15958e-13
-1.85914e-13
-2.53051e-13
1.78648e-12
3.09745e-13
-1.42806e-13
3.81777e-13
8.67386e-13
2.90095e-13
-8.18087e-14
7.10755e-13
2.90578e-12
-1.01203e-12
1.30757e-12
-2.33401e-12
1.40045e-12
9.73753e-13
-1.88601e-12
2.41666e-12
-5.15976e-13
9.45217e-13
-1.83528e-12
2.80629e-12
-1.63028e-12
7.58117e-13
-1.67148e-12
2.02768e-12
-2.23123e-12
4.60928e-13
-1.51624e-12
1.65659e-12
-5.31497e-12
3.14057e-12
-7.62509e-12
7.56867e-12
-9.20287e-12
3.35378e-12
-4.56002e-12
5.09398e-12
-9.59284e-12
9.7513e-13
-3.99381e-12
3.40838e-12
-9.91725e-12
1.9242e-12
-3.66105e-12
2.06135e-12
-1.04723e-11
1.97364e-12
-3.74273e-12
2.32414e-12
-1.07042e-11
2.05899e-12
-3.85689e-12
2.02993e-12
-1.15818e-11
2.12243e-12
-3.93865e-12
2.69378e-12
2.2968e-12
-4.24809e-12
2.77605e-12
1.17837e-11
-1.09953e-12
1.09345e-11
3.81699e-12
-8.45112e-13
1.07403e-11
3.67825e-12
-1.42472e-12
1.01306e-11
3.57894e-12
-9.95373e-13
9.65328e-12
3.54665e-12
-1.14522e-12
6.79472e-12
3.5654e-12
2.68593e-13
-5.46767e-12
3.40399e-12
2.00233e-12
6.85599e-12
-9.35175e-12
2.54952e-12
4.90045e-12
-1.01505e-11
2.07187e-12
2.27415e-12
-1.0811e-11
1.95426e-12
2.28558e-12
-1.10349e-11
2.01457e-12
1.88803e-12
2.12222e-12
2.4918e-12
1.15038e-11
3.7616e-12
-1.00079e-12
1.13201e-11
3.58617e-12
-1.38719e-12
1.07618e-11
3.32574e-12
-8.1232e-13
1.03604e-11
3.56493e-12
-1.09077e-12
8.6576e-12
4.10703e-12
1.46286e-13
-6.90807e-12
2.82732e-12
3.79858e-12
8.93997e-12
-1.1182e-11
5.08928e-12
-1.05885e-11
4.25838e-13
2.54606e-12
-1.12973e-11
1.752e-12
2.28233e-12
-1.137e-11
1.92336e-12
1.73602e-12
1.9545e-12
2.332e-12
1.11387e-11
-8.80325e-13
1.1216e-11
-1.40349e-12
1.03486e-11
-6.09125e-13
4.56565e-13
4.34327e-11
1.01771e-11
-5.42893e-12
-4.51759e-11
3.86719e-11
-3.53174e-12
9.20212e-12
4.18157e-12
3.05006e-11
-4.2907e-12
-1.06069e-13
-2.04422e-12
1.43559e-11
-7.91857e-12
9.34845e-12
-3.45844e-12
-3.10938e-12
-4.47988e-12
1.33064e-11
-6.94302e-12
-2.48036e-11
1.76916e-11
-8.68224e-12
-1.07233e-11
1.86596e-11
2.29377e-12
-3.47167e-13
1.34875e-13
7.53501e-13
1.6614e-12
-5.02556e-13
5.06187e-14
1.08413e-12
8.29112e-13
1.99534e-13
1.88891e-14
6.13829e-13
2.25522e-12
1.17876e-12
-8.06956e-13
-1.79806e-12
1.2505e-13
-1.1489e-12
5.78528e-13
2.7001e-12
-1.37283e-12
-8.86945e-13
4.15037e-13
1.96957e-12
-2.35514e-12
-1.32291e-12
1.75536e-12
5.4983e-13
-1.41222e-12
3.7332e-13
1.51111e-12
-6.89075e-13
2.41456e-12
2.66292e-13
2.45286e-12
2.21407e-12
-1.18651e-12
1.52177e-12
7.32686e-13
1.38532e-12
1.68461e-12
7.30297e-13
3.85055e-13
1.28923e-12
7.68795e-13
-1.5298e-12
1.58291e-12
1.27668e-12
-2.36413e-12
1.2333e-12
5.74665e-13
2.98673e-12
-1.09752e-12
-1.22844e-12
-3.0248e-12
2.3305e-12
2.08859e-12
-2.20836e-13
3.22537e-12
9.08767e-13
5.6236e-13
2.02742e-12
-1.56215e-12
1.09953e-12
1.38137e-13
2.62206e-13
6.70507e-12
-2.03362e-12
8.45206e-12
-1.1476e-11
-5.31198e-13
1.56075e-12
8.80132e-12
-1.07643e-12
-9.80684e-12
2.92458e-12
1.06524e-11
-1.88902e-11
-3.75479e-12
2.84734e-12
1.2077e-11
-2.8678e-11
-5.76206e-12
8.2045e-12
-3.07553e-12
-3.6122e-11
-2.82073e-12
5.45702e-12
-2.34696e-12
-3.65676e-11
-7.93448e-14
1.34941e-12
-2.94595e-11
2.82588e-12
-3.07625e-12
-1.17565e-11
6.54374e-12
-1.0773e-11
6.56168e-12
-1.10165e-11
5.14155e-12
1.96054e-11
2.93194e-13
-6.13921e-12
1.40737e-12
3.51966e-12
5.64961e-13
2.74139e-13
-2.95174e-12
-9.93939e-13
-1.02954e-12
-3.09961e-12
8.64279e-12
7.04788e-13
8.23469e-14
-1.2163e-12
-5.49043e-12
1.89713e-13
-3.32594e-12
-3.45727e-13
-2.91458e-12
-8.80641e-13
-3.1426e-13
-2.57762e-12
1.47421e-12
-1.79662e-13
-2.26692e-12
2.50341e-12
-1.20181e-13
-9.1106e-13
2.7046e-12
-1.74116e-13
-3.13495e-13
2.13971e-12
-1.81565e-13
3.99541e-13
-1.24937e-13
6.64715e-13
-1.94288e-12
8.79482e-13
-2.50747e-12
6.92987e-13
-2.37827e-12
1.21595e-14
-1.58285e-12
-6.92405e-13
3.41232e-13
-1.90942e-12
2.25075e-12
-2.01527e-12
4.21149e-12
-2.40845e-12
-5.57613e-13
-2.74737e-13
-1.23043e-12
-3.12891e-12
1.49814e-14
1.19131e-12
2.41933e-12
-6.6032e-14
-2.51542e-12
-6.1441e-12
-3.42544e-12
1.71296e-12
1.69204e-12
1.5028e-12
-1.70364e-12
3.51092e-12
2.98568e-14
-1.20719e-13
-2.98252e-13
-1.47274e-12
1.47607e-12
-3.54697e-13
-1.42408e-12
2.08672e-12
-3.5108e-13
-4.37898e-13
2.11542e-12
-3.05518e-13
9.07535e-14
1.82385e-12
-5.60662e-13
7.09616e-13
1.10382e-13
6.19251e-13
2.57231e-12
-3.12949e-12
-1.44635e-12
2.11356e-12
6.03666e-13
-1.83969e-12
2.46243e-12
1.34508e-12
-9.54331e-13
-1.94043e-12
1.0136e-12
2.48457e-12
-1.96619e-12
-1.6585e-12
9.46822e-13
1.72361e-12
-1.84613e-12
-3.16076e-12
7.19887e-13
2.32122e-12
-4.77094e-12
-6.37724e-12
3.15402e-12
6.14846e-12
-8.21957e-12
2.752e-12
4.54024e-12
-3.84295e-12
-9.4422e-12
2.2193e-12
-3.78088e-12
2.78465e-12
-9.65763e-12
2.06218e-12
-3.73391e-12
1.88727e-12
-1.01874e-11
2.02674e-12
-3.8082e-12
2.31155e-12
-1.0438e-11
2.09313e-12
-3.86352e-12
2.02142e-12
-1.13224e-11
2.1403e-12
-3.87031e-12
2.61474e-12
2.30863e-12
-4.15521e-12
2.81225e-12
1.16211e-11
-1.08354e-12
1.07697e-11
-9.46315e-13
1.04772e-11
-1.47082e-12
9.87683e-12
-1.11515e-12
9.7519e-12
-1.47389e-12
8.75023e-12
-7.72229e-13
-6.82133e-13
3.21026e-11
-8.08688e-12
1.57563e-11
-3.59125e-11
2.27312e-11
-5.56118e-12
-6.19601e-12
1.74542e-11
3.67419e-12
6.96439e-12
-1.02715e-11
2.2145e-12
2.36381e-11
1.84415e-13
-1.29273e-11
-1.19621e-11
2.736e-11
5.50624e-12
-1.01462e-12
-2.89391e-11
-1.02291e-11
3.98652e-12
2.28564e-11
-6.05462e-13
-4.09732e-11
-1.22673e-11
-5.75964e-12
7.41502e-12
2.26448e-11
-5.15827e-11
-4.26938e-12
-7.64652e-12
6.74106e-12
1.57837e-11
-5.25195e-11
-2.12338e-12
-3.26386e-13
3.95012e-12
-5.62236e-13
-4.25621e-11
3.81795e-12
3.92849e-12
-9.23941e-12
-8.46435e-12
-1.73442e-11
1.18316e-11
9.93952e-12
-2.56132e-11
-2.13746e-11
1.08228e-11
-2.19953e-11
8.82085e-12
1.28268e-11
-2.78199e-11
3.2447e-11
-1.37154e-11
-1.95176e-11
9.09227e-12
7.25253e-12
-8.10276e-12
-1.35366e-11
2.74321e-11
5.12653e-12
-3.41841e-12
-2.23949e-11