/*--------------------------------*- C++ -*----------------------------------*\
| =========                 |                                                 |
| \\      /  F ield         | OpenFOAM: The Open Source CFD Toolbox           |
|  \\    /   O peration     | Version:  5.0                                   |
|   \\  /    A nd           | Web:      www.OpenFOAM.org                      |
|    \\/     M anipulation  |                                                 |
\*---------------------------------------------------------------------------*/
FoamFile
{
    version     2.0;
    format      ascii;
    class       surfaceScalarField;
    location    "60";
    object      phiRest;
}
// * * * * * * * * * * * * * * * * * * * * * * * * * * * * * * * * * * * * * //

dimensions      [0 3 -1 0 0 0 0];

internalField   nonuniform List<scalar> 
105792
(
1.09557e-11
-1.96746e-10
-7.59257e-11
8.50555e-12
-1.99449e-10
-7.42046e-11
6.13273e-12
-1.9351e-10
-7.19351e-11
5.05815e-12
-1.83629e-10
-7.05888e-11
3.45927e-12
-1.72155e-10
-6.81631e-11
7.17834e-12
-1.50301e-10
-6.48716e-11
9.25956e-12
-1.21313e-10
-5.92442e-11
2.37281e-11
-8.82282e-11
-4.07006e-11
1.80629e-11
-5.72645e-11
-3.37943e-11
4.71745e-14
-9.27765e-11
-5.29633e-11
-7.4458e-12
-1.76291e-10
-8.05331e-11
4.47146e-13
-1.42281e-10
-5.32014e-11
4.10958e-12
-1.15117e-10
-4.48993e-11
1.64689e-11
-8.21995e-11
-2.54498e-11
1.15035e-11
-4.80243e-11
-2.23101e-11
-2.13206e-12
-6.71382e-11
-3.74341e-11
1.22053e-11
-9.74196e-11
-4.28304e-11
1.10685e-11
-5.48323e-11
-2.29624e-11
-6.6332e-12
-7.41563e-11
-3.40622e-11
9.83663e-12
-9.85017e-11
-3.93138e-11
7.3677e-12
-4.84141e-11
-2.20105e-11
-7.44345e-12
-6.6447e-11
-3.14325e-11
8.47583e-12
-9.53906e-11
-3.35688e-11
6.22388e-12
-4.59049e-11
-1.86995e-11
-5.06227e-12
-5.71883e-11
-2.8102e-11
5.9944e-12
-7.61904e-11
-2.7671e-11
3.66132e-12
-3.47215e-11
-1.36467e-11
6.26436e-12
-4.29579e-11
-2.15093e-11
7.9969e-12
-4.80716e-11
-2.34731e-11
9.15546e-12
-5.14684e-11
-2.53389e-11
1.90675e-12
-5.81886e-11
-2.6384e-11
-8.27178e-12
-6.65811e-11
-2.62499e-11
1.293e-12
-7.98319e-11
-2.28518e-11
1.82989e-12
-3.10828e-11
-1.1339e-11
6.89799e-13
-3.61515e-11
-1.73607e-11
2.56184e-12
-3.68427e-11
-1.81624e-11
3.0326e-12
-3.68886e-11
-1.86208e-11
2.16354e-12
-3.62355e-11
-1.74778e-11
4.5957e-12
-3.51287e-11
-1.74566e-11
2.14472e-12
-3.18814e-11
-1.47008e-11
3.33862e-12
-2.57388e-11
-1.07765e-11
1.2048e-11
-6.24744e-11
-2.27113e-11
1.78895e-12
-5.28909e-11
-1.81541e-11
5.70946e-13
-4.79486e-11
-1.89261e-11
2.51596e-12
-3.72229e-11
-1.43769e-11
1.91218e-12
-2.76762e-11
-1.17521e-11
1.73647e-11
-6.05037e-11
-2.41022e-11
3.21144e-12
-5.07772e-11
-1.7053e-11
1.35347e-12
-4.30416e-11
-1.82592e-11
-1.2666e-12
-3.5131e-11
-1.36993e-11
9.49321e-14
-1.01498e-11
-2.68389e-11
1.0705e-11
-5.24832e-11
-1.99015e-11
4.15199e-13
-4.0194e-11
-1.53236e-11
4.59705e-13
-1.25417e-11
-3.0165e-11
1.04509e-11
-5.51603e-11
-2.09428e-11
-2.16916e-13
-1.47702e-11
-4.03392e-11
1.08378e-13
-1.25521e-11
-2.94334e-11
8.615e-12
-2.05613e-11
-5.17435e-11
2.21056e-13
-1.46584e-11
-3.75491e-11
-1.1081e-12
-1.26043e-11
-2.77987e-11
8.79092e-12
-1.91457e-11
-4.6063e-11
-2.90946e-12
-1.52976e-11
-3.24419e-11
-1.36253e-12
-1.07858e-11
-2.09319e-11
2.95716e-12
-1.45901e-11
-2.88629e-11
9.424e-12
-2.30193e-11
-3.86248e-11
9.33231e-12
-3.36453e-11
-5.42498e-11
-1.75094e-12
-1.84611e-11
-3.53081e-11
-2.97193e-12
-1.29121e-11
-2.23164e-11
2.33532e-12
-1.28405e-11
-2.82853e-11
3.9017e-12
-1.9172e-11
-3.5338e-11
4.96692e-12
-2.05474e-11
-3.90522e-11
5.19149e-12
-2.18183e-11
-4.32431e-11
5.17585e-12
-2.21193e-11
-4.48907e-11
4.87663e-12
-2.27849e-11
-4.65719e-11
4.56252e-12
-2.27307e-11
-4.60398e-11
4.17579e-12
-2.30546e-11
-4.57681e-11
3.84007e-12
-2.25989e-11
-4.37304e-11
3.65757e-12
-2.25441e-11
-4.20356e-11
3.5017e-12
-2.17259e-11
-3.84854e-11
3.57661e-12
-2.13948e-11
-3.4502e-11
3.88438e-12
-1.98555e-11
-2.87588e-11
7.12321e-12
-1.39968e-11
-2.29143e-11
5.88838e-12
-1.29693e-11
-1.84366e-11
-2.31722e-12
-2.09587e-11
-3.08096e-11
-9.70357e-13
-2.98287e-11
-4.49758e-11
5.62069e-12
-1.57612e-11
-2.71564e-11
3.37407e-12
-1.35e-11
-1.82264e-11
-1.79443e-12
-1.95237e-11
-2.7999e-11
-2.06775e-12
-2.93259e-11
-4.46848e-11
5.24929e-12
-1.52463e-11
-2.80975e-11
1.96724e-12
-1.31637e-11
-1.7833e-11
-3.02436e-12
-1.93356e-11
-2.65201e-11
-2.34829e-12
-3.02958e-11
-3.85527e-11
3.3543e-12
-1.50034e-11
-2.35323e-11
2.07334e-13
-1.12036e-11
-1.4549e-11
-2.63376e-12
-1.62748e-11
-2.15109e-11
3.86377e-12
-1.96377e-11
-2.71263e-11
2.30636e-12
-9.85741e-12
-1.44775e-11
2.86314e-12
-1.44445e-11
-2.11133e-11
1.81449e-12
-1.74253e-11
-2.61839e-11
-3.92615e-12
-1.92221e-11
-2.97639e-11
7.33194e-13
-2.00727e-11
-3.48621e-11
3.99072e-13
-9.89425e-12
-1.57449e-11
-7.16997e-13
-2.03347e-11
-1.35381e-11
-2.24723e-13
-1.57013e-11
-2.3654e-11
-1.74346e-11
-2.71702e-11
9.70456e-12
-1.55485e-10
-4.01569e-11
7.77212e-12
-1.58263e-10
-3.92505e-11
6.0863e-12
-1.54714e-10
-3.71069e-11
4.8692e-12
-1.46883e-10
-3.55253e-11
2.68429e-12
-1.36342e-10
-3.36231e-11
4.29193e-12
-1.21926e-10
-2.99772e-11
6.49116e-12
-1.02405e-10
-2.11016e-11
1.01907e-11
-8.11444e-11
-1.0778e-11
2.36109e-11
-1.13458e-11
-5.934e-11
-4.52308e-11
1.04549e-11
-3.43864e-11
1.14058e-10
-9.51095e-12
-5.31676e-11
-9.66112e-11
-7.558e-12
-4.42152e-11
-6.95012e-12
-5.00009e-11
-9.28815e-11
3.47363e-12
-3.2022e-11
-9.35132e-11
7.33973e-12
-9.32809e-12
-7.6733e-11
1.49473e-11
-8.00046e-12
-4.76322e-11
-3.44318e-11
4.90449e-12
-2.26618e-11
7.0692e-11
-2.42714e-11
-5.78821e-11
-2.29719e-11
-2.81108e-12
-1.9007e-11
1.60846e-11
-1.67911e-11
-5.69384e-11
-3.7939e-11
3.38563e-12
-2.35162e-11
7.32079e-11
-2.43312e-11
-6.15879e-11
-2.52296e-11
-3.61873e-12
-1.82848e-11
1.16598e-11
-1.39909e-11
-4.97025e-11
-3.73173e-11
2.14021e-12
-1.96083e-11
7.05016e-11
-2.611e-11
-2.21443e-11
-5.95661e-11
-5.34952e-12
-1.73947e-11
1.09854e-11
-1.33774e-11
-4.88638e-11
-3.07572e-11
2.6084e-12
-1.80528e-11
5.65032e-11
-1.953e-11
-1.88079e-11
-4.89236e-11
-3.53817e-12
-1.35373e-11
2.68076e-12
-9.3925e-12
-3.15494e-11
-3.49133e-11
4.40913e-12
-9.77379e-12
-2.34707e-11
5.5866e-12
-7.59971e-12
-9.42424e-12
3.45795e-11
-1.33693e-11
-1.28724e-11
-3.18113e-11
4.51848e-11
4.68619e-13
-5.48055e-12
1.0523e-11
-9.00128e-12
-3.00325e-11
5.33586e-12
-1.62479e-11
4.28877e-11
-1.78231e-11
-3.86824e-11
-1.64137e-11
4.32548e-12
-1.42898e-11
-4.43466e-11
-7.06583e-14
-1.78363e-11
6.17753e-11
-2.21298e-11
-5.99237e-11
-2.40691e-11
-5.82293e-12
-1.23001e-11
8.21389e-13
-8.40277e-12
-2.93251e-11
-2.95854e-11
1.72773e-12
-7.47362e-12
-2.94368e-11
4.36008e-12
-1.66442e-12
-2.83847e-12
-2.87346e-11
6.64366e-12
-5.69745e-12
-1.64479e-12
3.49225e-11
-1.59165e-11
-1.35528e-11
-3.41923e-11
2.97496e-11
4.43479e-12
7.38569e-12
2.95044e-11
2.64812e-12
1.96379e-12
1.53888e-12
-7.1507e-12
-2.95525e-11
2.34462e-12
-8.14231e-12
-2.87785e-11
4.34835e-12
-2.46812e-12
-2.92652e-11
5.75434e-12
-8.28806e-13
3.36149e-11
-3.41052e-11
-1.32243e-11
-1.5555e-11
2.85951e-11
3.7206e-12
7.05779e-12
2.88825e-11
2.53559e-12
1.53123e-12
1.73107e-12
-6.74051e-12
-2.80668e-11
2.58453e-12
-7.91632e-12
-2.75484e-11
4.086e-12
-2.06314e-12
-2.74711e-11
4.52354e-12
-8.75954e-13
2.94073e-11
-1.44139e-11
-1.18008e-11
-3.06685e-11
2.61868e-11
2.36016e-12
5.38758e-12
2.57859e-11
2.02081e-12
2.47129e-12
2.0143e-12
-5.52686e-12
-2.45443e-11
9.13869e-12
-8.31963e-12
-2.24069e-11
1.39275e-12
-1.50467e-12
-2.26047e-11
2.1551e-12
4.05906e-13
1.91511e-11
-1.17102e-11
-8.00784e-12
-2.20413e-11
1.97508e-11
-1.73574e-12
3.29326e-12
1.89112e-11
1.51396e-12
7.18511e-13
3.15552e-11
4.47528e-11
-4.2587e-11
-1.48109e-11
-4.9279e-12
-4.36825e-12
-1.20387e-11
-1.3508e-11
2.40181e-10
-9.44156e-12
-2.40583e-10
1.39055e-11
-1.75659e-11
1.85576e-11
-6.31206e-11
1.55629e-11
-3.62706e-11
-5.82717e-11
5.66928e-11
-4.22508e-10
-4.91682e-12
-5.88619e-11
6.62167e-11
-6.54363e-10
1.27114e-11
-4.92064e-11
5.71914e-11
-7.98468e-10
3.29761e-11
-3.5139e-11
5.15173e-11
-9.84251e-10
5.20585e-11
-1.87667e-11
3.71065e-11
-1.16372e-09
6.59049e-11
-5.04597e-12
2.32225e-11
-1.31983e-09
8.28378e-11
7.9578e-12
8.94803e-12
-1.46521e-09
1.00513e-10
1.88119e-11
-3.22096e-12
-1.62194e-09
1.14469e-10
2.86506e-11
-1.52707e-11
-1.74241e-09
1.228e-10
3.82558e-11
-2.44176e-11
-1.87162e-09
1.32101e-10
4.79057e-11
-3.30632e-11
-1.97727e-09
1.40676e-10
5.73091e-11
-4.09643e-11
-2.0861e-09
1.48104e-10
6.71124e-11
-4.9155e-11
-2.16851e-09
1.54414e-10
7.68608e-11
-5.74601e-11
-2.25481e-09
1.57353e-10
8.6562e-11
-6.59971e-11
-2.3184e-09
1.6375e-10
9.56529e-11
-7.37778e-11
-2.38179e-09
1.66191e-10
1.04513e-10
-8.10497e-11
-2.42466e-09
1.65182e-10
1.12106e-10
-8.78051e-11
-2.4628e-09
1.67649e-10
1.19164e-10
-9.35949e-11
-2.48931e-09
1.66525e-10
1.25141e-10
-9.8713e-11
-2.5085e-09
1.64234e-10
1.29967e-10
-1.02627e-10
-2.51834e-09
1.60741e-10
1.33237e-10
-1.05143e-10
-2.51005e-09
1.56216e-10
1.35609e-10
-1.06804e-10
-2.50933e-09
1.50636e-10
1.36043e-10
-1.06887e-10
-2.48871e-09
1.44219e-10
1.3459e-10
-1.05293e-10
-2.46398e-09
1.36892e-10
1.3225e-10
-1.02812e-10
-2.4298e-09
1.29117e-10
1.27582e-10
-9.8333e-11
-2.39432e-09
1.20819e-10
1.21204e-10
-9.22565e-11
-2.33383e-09
1.13104e-10
1.12612e-10
-8.47504e-11
-2.28119e-09
1.05343e-10
1.03279e-10
-7.59899e-11
-2.20341e-09
9.82005e-11
9.18438e-11
-6.55439e-11
-2.13066e-09
9.20837e-11
-5.47348e-11
-2.03211e-09
8.68162e-11
-4.27074e-11
-1.94681e-09
8.24839e-11
-3.09038e-11
-1.8338e-09
7.89184e-11
-1.84364e-11
-1.73877e-09
7.73077e-11
-6.56236e-12
-1.61559e-09
7.44813e-11
4.91144e-12
-1.51445e-09
7.27274e-11
1.47835e-11
-1.39024e-09
7.05291e-11
2.36972e-11
-1.28698e-09
6.60675e-11
3.04625e-11
-1.16146e-09
5.99938e-11
3.57804e-11
-1.05539e-09
5.52229e-11
3.96336e-11
-9.2829e-10
5.15817e-11
4.5019e-11
-8.24212e-10
5.09947e-11
4.92241e-11
-7.04577e-10
5.14818e-11
5.31923e-11
-5.87726e-10
5.15194e-11
-4.61368e-10
-1.11634e-10
1.19686e-10
-2.35949e-09
-1.20539e-10
1.32017e-10
-2.43245e-09
-1.29677e-10
1.41891e-10
-2.51008e-09
-1.39052e-10
1.51104e-10
-2.56924e-09
-1.4814e-10
1.57838e-10
-2.6291e-09
-1.5677e-10
1.62641e-10
-2.66534e-09
-1.64403e-10
1.64792e-10
-2.70057e-09
-1.71154e-10
1.65983e-10
-2.72581e-09
-1.76796e-10
1.65101e-10
-2.74746e-09
-1.81324e-10
1.6197e-10
-2.74818e-09
-1.845e-10
1.57946e-10
-2.75883e-09
-1.86386e-10
1.52153e-10
-2.74919e-09
-1.84313e-10
1.4537e-10
-2.7343e-09
-1.86052e-10
1.36915e-10
-2.70295e-09
-1.83806e-10
1.28427e-10
-2.67225e-09
-1.77633e-10
1.18435e-10
-2.62738e-09
-1.75041e-10
1.07993e-10
-2.56362e-09
-1.68645e-10
9.72124e-11
-2.5067e-09
-1.6129e-10
8.6523e-11
-2.4248e-09
-1.52589e-10
7.49863e-11
-2.34349e-09
-1.42952e-10
6.38704e-11
-2.24387e-09
-1.34581e-10
5.26108e-11
-2.14555e-09
-1.21732e-10
4.1978e-11
-2.02474e-09
-1.06794e-10
3.18126e-11
-1.90748e-09
-9.2962e-11
2.22726e-11
-1.76081e-09
-7.76779e-11
1.18632e-11
-1.62066e-09
-5.50718e-11
-2.73377e-13
-1.45292e-09
-3.32264e-11
-1.58932e-11
-1.28447e-09
-1.12101e-11
-3.07684e-11
-1.08936e-09
2.42654e-12
-4.6606e-11
-8.96431e-10
1.05906e-11
-5.88992e-11
-6.78003e-10
3.2758e-11
-6.12667e-11
-4.95368e-10
3.25251e-11
-6.30095e-11
2.09158e-11
-2.71037e-10
5.81567e-12
-3.93598e-11
-2.83948e-11
-3.06871e-13
-2.19483e-11
-6.13957e-12
-8.40819e-12
-3.1259e-11
-2.95225e-12
-1.17082e-11
7.26244e-13
-2.90066e-11
2.91116e-12
-8.11538e-12
3.07046e-11
1.1506e-11
-8.29245e-11
2.22686e-12
3.08955e-11
2.72855e-12
-1.15576e-10
-1.8611e-11
4.99712e-11
1.05129e-11
-2.51568e-10
5.60777e-12
2.39566e-11
-8.92411e-11
-1.93764e-11
1.08942e-11
-2.60351e-11
1.18769e-13
4.80825e-12
-2.19859e-11
4.30339e-12
-8.56221e-12
2.11646e-13
1.9658e-11
-1.16476e-11
-7.38829e-12
-2.26111e-11
1.92135e-11
-7.50037e-13
5.49873e-12
1.46239e-11
1.04213e-12
3.66656e-12
2.45015e-11
2.98676e-11
-1.00958e-11
-2.96521e-11
-2.95225e-12
3.09291e-11
-3.32717e-12
-1.42556e-13
4.22101e-11
-4.39591e-12
9.99354e-13
-1.11067e-11
1.02956e-12
-6.32527e-12
-2.74961e-11
9.15843e-12
-8.3104e-12
-3.08023e-11
3.55885e-13
-3.70641e-13
-2.59791e-11
2.99612e-12
-9.72127e-12
1.90469e-12
2.16161e-11
-8.64376e-12
-1.3192e-11
-2.57628e-11
2.18089e-11
-1.79178e-12
4.59833e-12
1.92122e-11
8.72127e-14
2.86689e-12
3.68312e-11
4.57394e-11
-1.68039e-11
-4.65554e-11
-7.14636e-12
1.87432e-12
-8.67243e-12
-1.2748e-11
2.49317e-10
-1.14589e-11
2.19981e-11
-2.58674e-10
-1.39262e-11
2.89087e-11
-6.24255e-11
1.66252e-11
-2.82587e-11
-5.51808e-11
5.89523e-11
-4.18916e-10
3.16464e-13
-5.32749e-11
6.41919e-11
-6.36194e-10
1.51773e-11
-4.44464e-11
5.41427e-11
-7.5878e-10
3.18166e-11
-2.99975e-11
4.91051e-11
-9.18222e-10
4.80251e-11
-1.84209e-11
3.92169e-11
-1.07025e-09
6.29165e-11
-4.89804e-12
2.69999e-11
-1.20902e-09
7.44142e-11
5.73293e-12
1.53945e-11
-1.33415e-09
8.71916e-11
1.60841e-11
3.73529e-12
-1.44483e-09
9.75295e-11
2.46361e-11
-4.22379e-12
-1.5621e-09
1.07566e-10
3.18377e-11
-1.2342e-11
-1.65288e-09
1.12141e-10
3.87345e-11
-1.91478e-11
-1.74058e-09
1.17384e-10
4.53731e-11
-2.46625e-11
-1.81014e-09
1.21759e-10
5.15413e-11
-2.97716e-11
-1.8773e-09
1.25025e-10
5.7691e-11
-3.48933e-11
-1.9294e-09
1.25424e-10
6.3124e-11
-3.94315e-11
-1.97142e-09
1.28607e-10
6.82032e-11
-4.33744e-11
-2.00672e-09
1.26785e-10
7.22282e-11
-4.6592e-11
-2.02476e-09
1.28175e-10
7.53026e-11
-4.89942e-11
-2.04237e-09
1.26342e-10
7.74662e-11
-5.03635e-11
-2.04114e-09
1.23755e-10
7.82044e-11
-5.07538e-11
-2.03603e-09
1.20214e-10
7.81039e-11
-5.03583e-11
-2.02192e-09
1.15945e-10
7.63766e-11
-4.86281e-11
-1.99975e-09
1.1276e-10
7.38856e-11
-4.62074e-11
-1.96756e-09
1.07231e-10
6.96327e-11
-4.24619e-11
-1.93204e-09
9.94224e-11
6.43079e-11
-3.79349e-11
-1.87531e-09
9.35955e-11
5.74795e-11
-3.21638e-11
-1.82912e-09
8.77305e-11
4.96209e-11
-2.56635e-11
-1.75035e-09
8.23108e-11
4.07331e-11
-1.8295e-11
-1.68758e-09
7.71896e-11
3.13723e-11
-1.08145e-11
-1.59205e-09
7.258e-11
2.13196e-11
-2.44266e-12
-1.5136e-09
6.54096e-11
1.14364e-11
5.72421e-12
-1.40453e-09
6.41495e-11
1.00212e-12
1.46604e-11
-1.31742e-09
6.05898e-11
-9.1262e-12
2.31152e-11
-1.20118e-09
5.86393e-11
-1.91426e-11
-1.10911e-09
3.19749e-11
5.87883e-11
-2.754e-11
-9.96133e-10
3.92268e-11
5.35401e-11
-3.51145e-11
4.69008e-11
-9.00627e-10
5.30962e-11
-4.03351e-11
5.18123e-11
-7.94935e-10
5.11229e-11
-4.56023e-11
5.56968e-11
-7.03612e-10
4.88686e-11
-4.90281e-11
5.55294e-11
-6.04852e-10
4.19279e-11
-5.2617e-11
5.29673e-11
-5.01266e-10
3.35495e-11
-5.27738e-11
4.67185e-11
-3.8724e-10
4.01699e-11
-4.96107e-11
-2.92787e-10
4.4833e-11
2.28519e-11
-4.68465e-11
-1.69564e-10
2.36709e-11
-2.2457e-12
-3.21191e-11
-3.86207e-11
-3.29235e-11
-4.47593e-11
-2.12798e-10
-1.09685e-11
-1.47778e-13
-2.1887e-12
4.89847e-13
-9.58588e-12
-2.222e-13
3.68291e-13
-1.52823e-12
-8.47541e-12
-1.84726e-13
1.31816e-12
-2.24341e-12
-5.9135e-12
-1.11198e-13
-3.835e-12
1.38466e-12
-1.28011e-11
5.70335e-12
-1.27738e-11
1.39593e-11
-1.75831e-11
2.74591e-12
2.94537e-13
1.74273e-12
-1.73434e-11
1.79391e-13
1.93852e-13
-6.12302e-13
-4.02933e-14
1.16498e-13
-1.04324e-12
1.64918e-11
-2.26528e-13
-8.65912e-13
1.7065e-11
4.56068e-13
-8.49986e-13
2.13116e-11
-1.87156e-12
4.25429e-12
1.20339e-12
8.29912e-12
1.54689e-12
9.45757e-12
-1.85785e-12
1.0967e-11
-1.26452e-12
-1.93879e-12
-1.54449e-11
2.7226e-13
-7.9362e-13
2.22276e-14
-1.45972e-12
1.98046e-10
9.76126e-13
3.60272e-12
-9.95014e-12
-3.8064e-12
2.06624e-10
-5.09122e-13
5.07168e-12
-1.11592e-11
-1.9786e-12
2.20055e-10
1.82856e-12
-1.63408e-11
-5.44082e-12
5.54025e-12
-1.82043e-11
-7.0736e-12
-1.1682e-10
-2.53689e-09
-1.2705e-10
-2.61241e-09
-1.37533e-10
1.71646e-10
-2.69298e-09
-1.48279e-10
1.81323e-10
-2.75427e-09
-1.58774e-10
1.88352e-10
-2.81538e-09
-1.68771e-10
1.93283e-10
-2.85292e-09
-1.77685e-10
1.95182e-10
-2.88853e-09
-1.85618e-10
1.96103e-10
-2.91505e-09
-1.92396e-10
1.94713e-10
-2.93635e-09
-1.97959e-10
1.90883e-10
-2.93796e-09
-2.02052e-10
1.86098e-10
-2.94876e-09
-2.0468e-10
1.7926e-10
-2.94011e-09
-2.05798e-10
1.71428e-10
-2.9242e-09
-2.05451e-10
1.61881e-10
-2.89346e-09
-2.03619e-10
1.52462e-10
-2.86147e-09
-2.00178e-10
1.41248e-10
-2.81712e-09
-1.95493e-10
1.29891e-10
-2.75409e-09
-1.88936e-10
1.17544e-10
-2.6934e-09
-1.81508e-10
1.06155e-10
-2.61621e-09
-1.70424e-10
9.33439e-11
-2.53825e-09
-1.63265e-10
8.09207e-11
-2.43993e-09
-1.52566e-10
6.82456e-11
-2.35044e-09
-1.41375e-10
5.64956e-11
-2.23604e-09
-1.27666e-10
4.52464e-11
-2.12744e-09
-1.16063e-10
3.46966e-11
-1.98412e-09
-1.0429e-10
2.44005e-11
-1.85227e-09
-8.20264e-11
1.38529e-11
-1.69164e-09
-5.73099e-11
5.93897e-13
-1.5434e-09
-3.58878e-11
-1.38902e-11
-1.35689e-09
-1.52617e-11
-3.11266e-11
-1.16342e-09
8.16536e-12
-4.59269e-11
-9.55419e-10
2.34575e-11
-6.0021e-11
-7.29599e-10
3.9485e-11
-5.42928e-10
-5.88029e-11
3.34136e-11
-2.9451e-10
-6.22943e-11
2.40878e-11
5.25335e-12
-4.56212e-11
-4.44067e-11
-9.07803e-13
-3.38648e-11
-9.63438e-12
-1.01521e-11
-3.63773e-11
-3.33044e-12
-1.4184e-11
6.22598e-13
-3.48226e-11
2.19111e-12
-7.07549e-12
3.70051e-11
1.44889e-11
-1.00499e-10
2.43855e-12
2.89356e-12
-1.6183e-11
1.533e-11
-2.75405e-10
-1.24896e-11
8.49655e-12
-5.19996e-10
-3.51217e-11
-2.1646e-12
-2.96562e-10
-1.53468e-11
-1.88733e-12
-3.86334e-11
2.55933e-12
3.57976e-11
-3.55823e-11
3.30185e-12
3.71322e-11
-6.73825e-12
1.50612e-11
1.44852e-11
-1.03761e-10
-5.21638e-13
1.00006e-11
1.01155e-11
4.65773e-11
6.69857e-13
-3.23216e-11
4.66147e-12
-4.46502e-11
-5.82242e-11
2.68991e-11
-2.92225e-10
-3.02304e-11
-5.49933e-11
-5.60273e-10
-1.63189e-11
-5.59119e-11
-7.64447e-10
6.00094e-12
-4.65426e-11
-1.01219e-09
3.43381e-11
-3.05401e-11
-1.22736e-09
6.02698e-11
-1.48859e-11
-1.45383e-09
8.38007e-11
1.34957e-12
-1.63535e-09
1.06036e-10
1.40725e-11
-1.82382e-09
1.24228e-10
2.58061e-11
-1.96753e-09
1.34692e-10
3.64901e-11
-2.1192e-09
1.49038e-10
4.80076e-11
-2.24559e-09
1.61072e-10
5.99335e-11
-2.37387e-09
1.72435e-10
7.26864e-11
-2.47279e-09
1.82966e-10
8.55847e-11
-2.58107e-09
1.89952e-10
9.91361e-11
-2.66306e-09
2.00991e-10
1.12818e-10
-2.75905e-09
2.08136e-10
1.26701e-10
-2.8334e-09
2.14218e-10
1.38959e-10
-2.90838e-09
2.18928e-10
1.52499e-10
-2.97715e-09
2.2209e-10
1.64962e-10
-3.03928e-09
2.23573e-10
1.77368e-10
-3.08612e-09
2.23491e-10
1.87624e-10
-3.11924e-09
2.21845e-10
1.9831e-10
-3.1518e-09
2.18552e-10
2.07148e-10
-3.16787e-09
2.13651e-10
2.14952e-10
-3.17686e-09
2.0713e-10
2.20417e-10
-3.16465e-09
1.99282e-10
2.24962e-10
-3.16299e-09
1.90219e-10
2.26802e-10
-3.14089e-09
1.80097e-10
2.26149e-10
-3.11312e-09
1.6876e-10
2.24557e-10
-3.07585e-09
1.56865e-10
2.1959e-10
-3.03665e-09
1.44731e-10
2.12267e-10
-2.97342e-09
2.02175e-10
-2.90886e-09
-1.51045e-10
-3.08218e-09
-1.64632e-10
-3.14946e-09
-1.77901e-10
2.50881e-10
-3.21473e-09
-1.90499e-10
2.55857e-10
-3.25558e-09
-2.01764e-10
2.57136e-10
-3.29413e-09
-2.11863e-10
2.57573e-10
-3.32362e-09
-2.20666e-10
2.55278e-10
-3.34579e-09
-2.28029e-10
2.50081e-10
-3.34834e-09
-2.33674e-10
2.43937e-10
-3.36031e-09
-2.376e-10
2.35267e-10
-3.35188e-09
-2.39823e-10
2.25521e-10
-3.33354e-09
-2.40407e-10
2.13736e-10
-3.3003e-09
-2.39416e-10
2.02569e-10
-3.26342e-09
-2.36699e-10
1.89013e-10
-3.21566e-09
-2.32441e-10
1.7547e-10
-3.14929e-09
-2.26723e-10
1.60736e-10
-3.07944e-09
-2.19921e-10
1.47538e-10
-3.00115e-09
-2.11722e-10
1.32526e-10
-2.9281e-09
-2.02518e-10
1.18077e-10
-2.83464e-09
-1.91706e-10
1.02985e-10
-2.75347e-09
-1.80486e-10
8.94388e-11
-2.6509e-09
-1.68266e-10
7.51786e-11
-2.55573e-09
-1.55596e-10
6.19704e-11
-2.4369e-09
-1.42478e-10
4.90135e-11
-2.32022e-09
-1.25057e-10
3.69631e-11
-2.17765e-09
-1.0805e-10
2.44653e-11
-2.03498e-09
-8.49414e-11
1.17235e-11
-1.8557e-09
-6.0138e-11
-2.03407e-12
-1.68667e-09
-3.25952e-11
-1.59464e-11
-1.4654e-09
-7.44045e-12
-3.16388e-11
-1.25985e-09
1.94805e-11
-4.37987e-11
-1.02803e-09
3.68796e-11
-5.27562e-11
-7.76402e-10
5.35616e-11
-5.52881e-10
-4.36372e-11
2.68617e-11
-2.82393e-10
-3.9114e-13
3.14801e-12
-3.24499e-11
-4.37939e-11
-1.28329e-12
-3.32332e-11
-9.27789e-12
-7.37104e-12
-2.63622e-11
-3.55395e-12
-1.25341e-11
3.14402e-13
-3.19835e-11
7.94512e-13
1.27418e-12
3.55937e-11
1.38722e-11
-9.39823e-11
2.56425e-12
5.9132e-13
-1.03317e-11
-2.9759e-10
9.5529e-12
-7.07475e-12
-2.52336e-11
-5.32286e-10
1.38221e-12
-2.91863e-10
-8.62726e-12
-1.15052e-11
1.15379e-11
-4.38477e-11
5.34742e-11
-3.01527e-10
-1.8276e-12
-1.33538e-10
2.82202e-11
-6.74743e-12
-2.72378e-11
-2.41992e-11
-1.74398e-12
-2.93338e-12
-2.04462e-11
9.02156e-12
-9.52088e-12
-3.25094e-12
3.29035e-11
-2.82095e-11
-1.23724e-11
-1.27717e-11
8.99317e-12
4.29493e-11
-1.65273e-10
-3.86354e-12
3.25128e-10
7.44579e-13
-3.70864e-10
9.44534e-12
7.84921e-11
-3.79903e-12
9.04002e-12
5.05114e-11
-1.35442e-10
2.73854e-11
-1.70213e-10
4.20737e-11
-1.8283e-11
-2.20547e-10
-4.49426e-11
2.70008e-11
8.65603e-11
-2.29624e-12
-5.38803e-12
-8.7754e-11
4.30533e-11
-1.76431e-11
3.71741e-12
-1.59312e-12
-2.36261e-11
5.97111e-12
-3.36486e-12
3.37791e-12
-2.50729e-11
7.93636e-12
-5.73942e-12
-7.506e-13
2.95334e-11
-2.93912e-11
-1.0799e-11
-1.44196e-11
2.29295e-11
4.90172e-12
9.63872e-12
1.71245e-11
2.93888e-12
8.83873e-12
1.32399e-12
5.10531e-12
-1.56086e-11
3.11193e-12
2.0209e-12
-2.06657e-11
4.60624e-12
3.39079e-12
-2.07538e-11
5.28189e-12
-2.92715e-13
1.98465e-11
-1.18091e-11
-7.14282e-12
-2.16509e-11
1.94545e-11
-7.57311e-14
5.7493e-12
1.43231e-11
2.29324e-12
7.44599e-12
1.53056e-12
4.19607e-12
-1.35634e-11
-1.47408e-12
-1.69544e-11
2.31799e-12
3.36825e-12
-2.61753e-11
4.651e-12
4.49651e-12
-2.15597e-11
7.52329e-12
-1.04891e-11
-1.65077e-12
2.12533e-11
-1.26916e-11
-7.20974e-12
-2.29137e-11
2.08446e-11
6.85586e-13
7.24626e-12
1.49622e-11
2.26715e-12
8.26615e-12
1.51204e-12
4.1218e-12
-1.27531e-11
8.61184e-12
-1.73341e-12
-1.67261e-11
2.58783e-12
3.65322e-12
-2.54405e-11
5.31309e-12
4.08856e-12
-2.14595e-11
7.81545e-12
-1.06806e-11
-1.11615e-12
2.02324e-11
-1.22487e-11
-7.3252e-12
-2.21194e-11
1.98559e-11
7.84663e-13
7.40685e-12
1.40611e-11
3.12108e-12
7.98667e-12
1.08002e-11
1.56411e-12
4.28593e-12
1.80204e-11
2.02692e-11
-6.86606e-12
-2.06259e-11
-5.04793e-12
-4.28882e-13
1.77201e-11
5.7772e-12
2.38062e-11
2.8036e-14
1.65433e-11
5.24554e-12
1.27039e-12
-2.23035e-12
-8.27507e-11
3.61092e-11
1.8434e-11
3.38168e-11
5.83475e-12
-1.11658e-10
1.73142e-10
-1.68143e-11
8.02959e-11
2.09458e-11
-2.23754e-10
1.43542e-10
3.92096e-11
2.84052e-11
9.61701e-11
3.55835e-11
1.12786e-11
3.4509e-11
3.42504e-11
1.42676e-11
1.31438e-11
-2.88438e-12
2.39478e-11
1.98783e-12
2.73959e-12
3.52228e-11
-6.59631e-12
1.01367e-11
5.45672e-13
4.49879e-11
3.71048e-13
-3.10109e-11
7.03634e-12
-2.95843e-11
-3.2143e-10
2.383e-11
2.94775e-12
-5.33289e-10
1.17468e-11
-6.91217e-10
2.21352e-11
-8.83056e-10
3.90502e-11
-1.06141e-09
5.52029e-11
-1.20988e-09
7.32594e-11
-1.37653e-09
8.88363e-11
-1.50586e-09
9.96041e-11
-1.63753e-09
1.11521e-10
-1.74824e-09
1.21586e-10
-1.8585e-09
1.28895e-10
-1.94503e-09
1.33349e-10
-2.03162e-09
1.38537e-10
-2.10117e-09
1.42591e-10
-2.16381e-09
1.45752e-10
-2.2118e-09
1.47446e-10
-2.25108e-09
1.48326e-10
-2.27994e-09
1.45548e-10
-2.29758e-09
1.46314e-10
-2.31171e-09
1.43947e-10
-2.30677e-09
1.40288e-10
-2.30276e-09
1.35789e-10
-2.28467e-09
1.30534e-10
-2.26149e-09
1.24415e-10
-2.22758e-09
1.19947e-10
-2.19338e-09
1.10982e-10
-2.13216e-09
1.04188e-10
-2.08541e-09
9.73447e-11
-2.00561e-09
9.1345e-11
-1.93738e-09
8.5657e-11
-1.84179e-09
8.09341e-11
-1.75891e-09
7.49125e-11
-1.64755e-09
7.27747e-11
-1.55514e-09
7.18916e-11
-1.43578e-09
6.82968e-11
-1.33688e-09
6.67681e-11
-1.21773e-09
6.15278e-11
-1.11577e-09
5.89474e-11
-9.97709e-10
5.45057e-11
-8.9864e-10
5.22202e-11
-7.80958e-10
4.8665e-11
-6.74155e-10
4.63873e-11
-5.48383e-10
4.16068e-11
-4.29544e-10
-3.38199e-10
1.59197e-11
1.79534e-11
-3.61926e-11
-3.86987e-11
-2.97179e-10
7.29317e-12
6.86607e-12
-1.54302e-10
-1.35011e-11
-1.65276e-11
3.09216e-12
2.03737e-11
3.55237e-13
8.29301e-12
-4.68643e-11
6.98225e-12
1.50619e-11
6.53761e-12
4.84113e-12
6.84165e-15
-1.39137e-11
2.30363e-13
-1.14652e-13
-1.10605e-11
6.85284e-13
-3.06367e-12
-4.71508e-13
-1.02074e-11
8.65694e-13
-6.01337e-13
-1.1154e-12
-9.55006e-12
7.02171e-13
-4.96781e-13
-8.6162e-13
-8.20676e-12
4.72507e-13
-3.26512e-13
-1.48913e-12
-7.14403e-12
2.89745e-13
-2.02573e-13
-1.15018e-12
-5.54197e-12
4.02157e-13
-3.36436e-13
-1.66853e-12
-4.70788e-12
5.06278e-13
-4.09252e-13
-9.31968e-13
-1.07155e-11
3.8661e-12
-8.82756e-12
1.09714e-11
-1.11591e-11
3.35021e-13
2.95203e-13
-1.87094e-13
-9.89757e-12
3.99832e-15
1.64352e-14
-1.28194e-12
-7.81289e-12
-8.07011e-14
-3.42222e-13
-1.66198e-12
-6.67382e-12
-2.51275e-14
-6.06765e-13
-5.07802e-13
-1.64091e-11
7.05817e-12
-1.68095e-11
1.94883e-11
-2.07127e-11
4.12593e-12
-1.60814e-12
1.78716e-12
-1.70489e-11
-2.98948e-12
1.15231e-13
-7.89197e-13
-1.62628e-11
-2.91889e-13
1.82363e-13
-6.75975e-13
-1.59717e-11
-7.42484e-14
-1.64824e-13
-5.16861e-14
-1.56337e-11
1.2362e-13
-4.4104e-13
-2.03379e-14
-1.6126e-11
2.504e-13
-6.10081e-13
8.52066e-13
3.75362e-13
-7.7272e-13
9.98461e-13
1.64761e-11
2.59686e-13
1.59921e-11
4.13543e-13
3.20879e-13
1.63534e-11
1.37176e-13
-3.74905e-13
1.66208e-11
-1.3479e-13
-2.06945e-13
1.73417e-11
-4.66288e-13
-5.46687e-13
1.28022e-11
-8.29148e-13
2.37928e-12
-1.55222e-11
6.72948e-12
5.5839e-12
1.60128e-11
-1.77212e-11
6.55114e-14
1.30525e-12
-1.70189e-11
-2.1958e-13
-9.47827e-13
-1.67615e-11
-1.68252e-13
-2.23107e-13
-1.63733e-11
4.49276e-15
-2.54807e-13
2.05002e-13
5.12508e-13
1.70043e-11
2.89829e-13
5.94121e-14
1.74886e-11
-4.24275e-14
-4.37306e-13
1.79468e-11
-5.77411e-13
-4.89654e-14
1.91712e-11
-5.88689e-13
-8.55123e-13
1.76368e-11
1.02711e-12
5.73305e-13
-1.78019e-11
7.27058e-12
7.67958e-12
2.04902e-11
-2.23573e-11
1.74934e-12
-1.79834e-11
-3.26298e-12
-1.69858e-12
-1.76581e-11
-3.45818e-13
-5.56455e-13
-1.70391e-11
-3.74029e-14
-6.23315e-13
1.24149e-13
1.07507e-13
1.67992e-11
-1.85574e-13
1.76794e-11
-8.0087e-13
1.78053e-11
-2.7779e-13
2.06365e-12
9.75291e-11
-2.01547e-12
-5.56052e-12
-8.95848e-11
1.10382e-10
-9.50793e-12
-1.44422e-11
1.285e-11
1.26834e-10
1.23801e-11
6.51903e-12
-2.55905e-11
1.41359e-10
4.46199e-12
-1.50693e-11
4.79412e-12
1.58973e-10
6.41502e-12
-1.61161e-11
4.99423e-12
1.74294e-10
-1.80603e-11
4.84704e-12
1.65924e-11
-2.55945e-11
-7.08538e-12
1.86731e-13
-2.41184e-13
-1.70407e-12
-6.22712e-12
4.72704e-13
1.43824e-13
-1.47469e-12
-4.15658e-12
-3.15478e-12
3.26465e-13
7.57705e-13
-1.1459e-11
-9.18273e-12
4.98096e-12
1.15067e-11
-1.19363e-11
9.07735e-13
-3.23994e-13
-1.06971e-13
-1.0269e-11
7.58725e-13
-4.33946e-13
-1.99226e-12
-8.43061e-12
5.63482e-14
-1.64558e-12
-2.49133e-13
-2.78557e-13
-1.86624e-13
-6.95202e-13
-4.25863e-13
7.93668e-12
-1.05995e-12
7.92941e-12
1.35537e-12
7.23727e-13
8.78128e-12
5.55668e-14
-1.63073e-12
8.35752e-12
-6.01906e-13
1.03032e-11
-3.71138e-13
-1.6557e-12
1.20528e-11
-2.31099e-13
-1.51542e-12
1.24163e-11
1.10437e-12
-1.1335e-12
-1.22024e-11
5.43868e-12
4.911e-12
1.42718e-11
-1.46632e-11
4.10883e-13
-1.07095e-11
-1.95385e-12
-2.23192e-12
-4.57115e-13
-1.84274e-12
-9.75969e-12
-1.33216e-12
1.13926e-11
-1.71183e-12
5.06643e-11
-8.15959e-12
-3.23734e-12
-4.26079e-11
5.80353e-11
-5.97174e-12
-4.57327e-12
-8.85108e-13
6.83883e-11
-6.85361e-12
-4.56672e-12
8.22148e-11
1.20731e-11
-1.18319e-11
-1.36579e-11
9.61452e-11
8.41877e-12
-2.28813e-11
7.04557e-12
1.1185e-10
3.86968e-12
-1.66119e-11
6.17193e-12
1.25204e-10
2.70376e-12
-1.4566e-11
1.41293e-10
3.1408e-12
-1.76086e-11
1.55298e-10
1.70049e-12
-1.69377e-11
1.7191e-10
-1.87369e-11
2.34376e-12
1.90201e-10
-2.69669e-12
-1.53524e-11
1.11423e-11
-2.05209e-11
4.74091e-12
2.21494e-13
2.67015e-11
1.10347e-11
1.06078e-11
2.08621e-11
-6.30252e-11
8.5422e-12
1.90307e-13
7.04329e-12
-1.78993e-11
-1.87342e-13
-1.4072e-11
-6.16516e-13
-5.36076e-12
-1.26449e-11
-4.6591e-13
-1.60463e-12
-1.15316e-11
-3.93585e-13
-1.55583e-12
-9.98328e-12
-1.98552e-13
-1.72489e-12
-8.44023e-12
-5.25486e-14
-1.1676e-12
-6.59245e-12
-2.48513e-14
-1.63764e-12
-2.75267e-14
-6.55413e-13
5.88549e-12
-4.9694e-13
7.6707e-12
-1.40877e-12
8.92793e-12
-1.02008e-12
1.04061e-11
-1.2041e-12
1.13739e-11
-6.58092e-13
1.23374e-11
-5.62253e-13
1.61606e-11
-3.75085e-12
-7.45077e-12
-3.38441e-12
6.73222e-12
2.45661e-11
-8.21181e-13
-5.15621e-12
-6.96742e-11
-3.19103e-14
-9.38841e-12
-5.05922e-12
-1.44979e-10
2.18298e-12
-5.41195e-11
1.98008e-12
-8.90974e-12
1.20371e-11
-1.41318e-12
-8.78219e-12
-7.11008e-13
-1.59197e-14
-8.47313e-12
-7.32611e-13
-7.17596e-14
-7.36039e-12
-5.59834e-13
-8.78562e-13
-6.38849e-12
-4.87261e-13
-6.86844e-13
-5.63503e-12
1.58399e-13
-1.24801e-12
-3.05431e-12
8.75844e-13
-1.38768e-11
1.0328e-11
-3.92682e-13
8.87167e-13
-1.01439e-11
3.44498e-14
-1.94221e-12
-1.82659e-12
-8.5835e-12
-4.2752e-13
-7.2928e-14
-1.06054e-12
-7.53452e-12
1.57508e-13
3.35872e-13
-1.54264e-12
-5.34622e-12
-4.15352e-12
5.40385e-13
1.42465e-12
-1.4694e-11
-1.23039e-11
6.44985e-12
1.52032e-11
-1.65552e-11
4.61399e-13
1.10198e-12
2.97809e-13
-1.61164e-11
1.59379e-14
-3.69104e-14
-4.17681e-13
-1.52559e-11
1.31658e-14
-3.04593e-13
-5.69016e-13
-1.50721e-11
1.53307e-13
-5.61549e-13
2.24561e-13
-1.48424e-11
2.69281e-13
-7.49014e-13
2.50095e-13
-1.5375e-11
3.57178e-13
-7.88945e-13
9.6448e-13
4.3132e-13
-8.79335e-13
1.23044e-12
1.58316e-11
3.47364e-13
1.53634e-11
2.15723e-13
1.55644e-11
-3.72531e-13
1.57888e-11
-2.35588e-13
1.67028e-11
-7.18495e-13
1.75205e-11
-6.86572e-13
-4.35685e-13
9.6285e-11
-1.00004e-11
6.34297e-14
-8.56795e-11
1.10615e-10
9.22146e-12
-2.59517e-11
-1.31291e-11
1.55313e-11
1.26913e-10
1.90143e-12
-1.95204e-11
-6.3694e-12
7.68899e-12
1.40031e-10
1.49836e-12
-4.75258e-12
-1.61689e-11
6.30459e-12
1.55693e-10
3.25002e-12
-2.11102e-11
-7.17593e-12
9.37204e-12
1.54312e-10
8.99127e-12
2.02131e-11
-2.15742e-11
-6.25036e-12
1.6956e-10
1.62384e-11
5.40034e-12
-2.87589e-11
-8.12595e-12
1.81767e-10
3.35837e-12
1.38118e-11
-5.35074e-12
-2.40237e-11
1.96682e-10
3.69197e-12
1.47761e-11
-2.64456e-11
-6.93412e-12
2.07162e-10
6.69026e-13
1.35042e-11
-4.424e-12
-2.02276e-11
2.23651e-10
-2.30943e-11
1.38557e-11
1.2337e-12
-8.48454e-12
2.5703e-10
-2.457e-11
-1.85993e-11
4.02816e-13
1.41459e-11
-2.86937e-11
-3.47103e-11
1.40186e-10
1.0417e-11
-1.22701e-11
-1.26553e-10
2.36805e-12
1.80415e-11
-6.04695e-12
-5.42999e-13
-1.81875e-11