/*--------------------------------*- C++ -*----------------------------------*\
| =========                 |                                                 |
| \\      /  F ield         | OpenFOAM: The Open Source CFD Toolbox           |
|  \\    /   O peration     | Version:  5.0                                   |
|   \\  /    A nd           | Web:      www.OpenFOAM.org                      |
|    \\/     M anipulation  |                                                 |
\*---------------------------------------------------------------------------*/
FoamFile
{
    version     2.0;
    format      ascii;
    class       volVectorField;
    location    "60";
    object      U;
}
// * * * * * * * * * * * * * * * * * * * * * * * * * * * * * * * * * * * * * //

dimensions      [0 1 -1 0 0 0 0];

internalField   nonuniform List<vector> 
36177
(
(-2.35695e-06 0.000128656 0.000599715)
(-3.17997e-06 0.000123401 0.000599049)
(-5.93215e-06 0.000118182 0.000578028)
(-8.78701e-06 0.00010972 0.000556917)
(-1.46704e-05 9.79519e-05 0.000534965)
(-2.16065e-05 8.10263e-05 0.000499114)
(-3.12194e-05 6.01568e-05 0.000453521)
(-3.45629e-05 5.43767e-05 0.000373384)
(-3.81085e-05 7.34851e-05 0.000282518)
(-1.28347e-05 0.000106844 0.000374702)
(-2.2806e-05 0.00011203 0.000500943)
(-2.22807e-05 7.09176e-05 0.000471411)
(-2.64513e-05 3.7518e-05 0.00044835)
(-2.43618e-05 1.9796e-05 0.000382923)
(-2.95568e-05 2.76177e-05 0.000274267)
(-1.19135e-05 2.86064e-05 0.000335994)
(-2.6632e-05 2.7095e-05 0.0004202)
(-3.25851e-05 2.52647e-05 0.000298332)
(-1.11744e-05 1.97172e-05 0.000370033)
(-2.3311e-05 1.28537e-05 0.000444159)
(-3.18717e-05 1.78979e-05 0.000291531)
(-1.32014e-05 2.15527e-05 0.000369918)
(-2.42192e-05 1.1822e-05 0.000457213)
(-3.2526e-05 1.11336e-05 0.000300621)
(-1.34109e-05 1.48759e-05 0.000346498)
(-2.28393e-05 9.17109e-06 0.00043389)
(-2.29847e-05 1.45624e-06 0.000277489)
(-1.4827e-05 1.60816e-06 0.000285023)
(-3.08605e-05 1.80102e-05 0.000298145)
(-1.95968e-05 8.82922e-06 0.000321781)
(-3.56108e-05 2.82724e-05 0.000339705)
(-1.34309e-05 9.44229e-06 0.000425193)
(-2.4979e-05 2.01713e-06 0.000504286)
(-2.44851e-05 -4.85611e-06 0.000301058)
(-1.46135e-05 -3.21588e-06 0.000299567)
(-2.42945e-05 1.05842e-05 0.000300803)
(-1.4051e-05 -1.08362e-06 0.000306631)
(-2.39939e-05 9.32016e-06 0.000307296)
(-1.48384e-05 -3.8848e-06 0.000298879)
(-2.49821e-05 8.1463e-06 0.000290059)
(-2.53107e-05 -3.45867e-06 0.000287961)
(-3.1957e-05 6.57462e-06 0.000493735)
(-2.24833e-05 1.26756e-05 0.000404169)
(-4.68921e-06 -1.92732e-05 0.000348699)
(-1.83825e-05 -2.60361e-06 0.000315146)
(-2.10191e-05 -1.45334e-05 0.000301805)
(-3.21859e-05 8.74935e-07 0.000507022)
(-2.94828e-05 1.60836e-05 0.000423855)
(-5.95615e-06 -1.21842e-05 0.000336531)
(-1.64866e-05 1.89013e-06 0.000317597)
(-1.45801e-05 -1.84e-05 0.000313731)
(-2.63359e-05 -7.01713e-06 0.000510517)
(-2.22e-05 6.92725e-06 0.000402598)
(-1.37111e-05 -2.12698e-05 0.000342422)
(-2.46305e-05 -1.10694e-05 0.000531605)
(-1.93929e-05 4.16782e-06 0.000415284)
(-1.28597e-05 -2.15071e-05 0.00034255)
(-2.63092e-05 -9.02201e-06 0.000530195)
(-2.1322e-05 7.94802e-06 0.000406916)
(-1.16002e-05 -2.26794e-05 0.00034506)
(-2.24679e-05 -7.17691e-06 0.000518621)
(-9.94305e-06 2.43608e-06 0.000393875)
(6.15117e-06 -2.35439e-05 0.000299713)
(-2.22153e-05 -2.45159e-05 0.000457014)
(-3.89084e-05 -2.24268e-05 0.000547307)
(-2.68266e-05 -1.14361e-05 0.000585467)
(-1.10867e-05 5.31458e-06 0.000389689)
(-2.10936e-06 -2.5095e-05 0.000318816)
(-2.65938e-05 -2.43375e-05 0.000489715)
(-2.57063e-05 -2.51821e-05 0.000572584)
(-1.4026e-05 -1.77612e-05 0.000593063)
(-1.60943e-05 -1.4921e-05 0.000603617)
(-1.37536e-05 -1.42086e-05 0.000600107)
(-1.62777e-05 -1.31158e-05 0.000598474)
(-1.63243e-05 -1.25158e-05 0.000586337)
(-1.7383e-05 -1.12788e-05 0.000578549)
(-1.78988e-05 -9.93428e-06 0.000562047)
(-1.95997e-05 -8.53473e-06 0.000548945)
(-1.47482e-05 -8.84961e-06 0.000529126)
(-1.27686e-05 -1.05382e-05 0.000504539)
(-5.59811e-06 -1.54225e-05 0.000451863)
(-9.11208e-06 -1.56311e-05 0.000367996)
(-2.42103e-05 -1.408e-05 0.000217279)
(-1.2364e-05 6.95515e-06 0.000266278)
(-3.16422e-06 2.55211e-06 0.000404195)
(6.941e-06 -2.25133e-06 0.000329969)
(-1.19966e-05 -1.04693e-05 0.000172964)
(-1.03454e-05 1.01677e-05 0.000209186)
(-1.19665e-05 1.30448e-06 0.000348287)
(-1.14632e-06 -3.47842e-07 0.00029396)
(-1.08174e-05 -8.46446e-06 0.000143721)
(-5.88691e-06 6.96187e-06 0.000157931)
(-7.87704e-06 1.71777e-07 0.000278096)
(-1.99799e-06 -3.4518e-07 0.000230335)
(-6.39846e-06 -2.48465e-06 0.000108829)
(-2.64156e-07 7.99937e-06 0.000137479)
(-6.64507e-06 6.34087e-07 0.000216402)
(-7.28817e-06 -4.60005e-06 9.88697e-05)
(-1.55377e-06 5.04799e-06 9.26448e-05)
(-6.66224e-06 -3.13528e-06 9.43153e-05)
(2.64365e-06 9.18704e-06 9.91503e-05)
(-5.16083e-06 3.46356e-06 0.000160436)
(-7.24626e-07 -6.0803e-07 5.73152e-05)
(2.9632e-06 6.01826e-06 4.93832e-05)
(-9.1783e-07 1.12608e-06 4.80005e-05)
(5.37117e-06 9.02771e-06 7.51998e-05)
(-2.38145e-05 9.90776e-05 0.000251912)
(-2.44479e-05 9.3095e-05 0.000257933)
(-2.51874e-05 8.89298e-05 0.000249426)
(-2.44218e-05 8.04503e-05 0.00023956)
(-2.62262e-05 7.01455e-05 0.000224712)
(-2.6749e-05 5.50317e-05 0.000200021)
(-2.86214e-05 4.05987e-05 0.000177679)
(-2.65194e-05 2.84379e-05 0.000139023)
(-1.30453e-06 5.38996e-05 9.13009e-05)
(3.9285e-06 8.81873e-05 0.000161569)
(-3.21776e-06 7.05309e-05 0.00019658)
(-3.23234e-05 9.37522e-05 0.000290358)
(-2.48013e-05 5.2073e-05 0.000246229)
(-2.34878e-05 2.59614e-05 0.000230604)
(-1.91809e-05 1.39702e-06 0.000199413)
(4.38027e-06 3.0046e-05 0.000112211)
(7.39455e-06 4.69788e-05 0.000149942)
(6.20169e-06 3.24556e-05 0.000179332)
(-2.6992e-05 1.94361e-05 0.000226319)
(4.05621e-06 2.90206e-05 0.000135564)
(7.30876e-06 4.59394e-05 0.000185423)
(6.54305e-06 2.88443e-05 0.000212117)
(-2.40576e-05 8.57815e-06 0.000253637)
(4.56749e-06 2.56838e-05 0.000129524)
(6.1859e-06 5.07055e-05 0.000180731)
(6.07019e-06 3.18784e-05 0.000218015)
(-2.48364e-05 7.02033e-06 0.000266534)
(4.87329e-06 1.83089e-05 0.000138377)
(5.89966e-06 4.70417e-05 0.000166848)
(7.41629e-06 3.35666e-05 0.000203314)
(-2.4162e-05 7.87393e-06 0.000255561)
(1.53488e-05 4.57474e-06 0.00012808)
(6.45236e-06 2.17119e-05 0.000143037)
(-1.25354e-06 1.67152e-05 0.000135343)
(-1.08852e-05 1.62798e-05 9.75823e-05)
(-1.28046e-05 2.49638e-05 0.000138902)
(-1.35082e-06 3.81721e-05 0.000150249)
(6.23274e-06 3.69177e-05 0.000176997)
(1.06758e-05 4.34766e-05 0.000181516)
(1.44058e-07 5.95601e-05 0.000186864)
(9.94989e-06 5.80134e-05 0.000224023)
(5.40139e-06 4.16296e-05 0.000254244)
(-2.76203e-05 8.21175e-06 0.00031468)
(1.45175e-05 5.38382e-07 0.000153933)
(5.44352e-06 2.22721e-05 0.00014694)
(-4.77983e-06 1.46857e-05 0.000137802)
(-2.22413e-05 -1.04431e-06 8.50561e-05)
(-2.56552e-05 7.02278e-06 9.80282e-05)
(-3.29995e-05 1.41591e-05 8.71017e-05)
(-6.47005e-06 2.04365e-05 0.000138591)
(4.67177e-06 2.7573e-05 0.000149987)
(2.92611e-06 2.81398e-05 0.000153725)
(-8.54005e-06 2.10238e-05 0.000140876)
(-2.20505e-05 3.1156e-07 8.66298e-05)
(-2.60653e-05 7.7458e-06 9.91767e-05)
(-3.43895e-05 1.53345e-05 8.96567e-05)
(-8.53705e-06 2.36089e-05 0.000141999)
(3.70019e-06 2.84713e-05 0.000154557)
(1.32121e-06 2.73474e-05 0.000154065)
(-1.04913e-05 2.15832e-05 0.000141931)
(-2.22848e-05 3.24493e-07 8.63969e-05)
(-2.57332e-05 8.42727e-06 9.65753e-05)
(-3.39673e-05 1.40464e-05 8.64349e-05)
(-1.37683e-05 2.52252e-05 0.000137306)
(-9.09427e-07 3.04845e-05 0.0001423)
(-2.21074e-05 3.67944e-05 0.000152946)
(-2.36147e-05 2.28007e-05 0.000132073)
(-2.17941e-05 -3.36466e-07 8.46444e-05)
(-2.14971e-05 7.75112e-06 9.00583e-05)
(-3.25964e-05 1.19689e-05 9.2905e-05)
(-3.47423e-05 2.02181e-05 0.000131479)
(1.34079e-05 3.17487e-05 0.000269595)
(2.6666e-05 3.1218e-05 0.00023741)
(-2.97016e-05 6.51745e-06 0.00031788)
(-6.82612e-05 6.18687e-05 0.000539657)
(-2.36894e-05 6.83726e-05 0.000736923)
(1.16891e-05 8.58268e-05 0.000849189)
(2.28899e-05 0.000150255 0.000947049)
(6.65104e-05 0.00025766 0.00107007)
(0.000121916 0.000377836 0.00119465)
(0.000177759 0.000511243 0.00136102)
(0.000239373 0.000644266 0.00159188)
(0.000276481 0.000820203 0.00176527)
(0.00033965 0.00100994 0.00192174)
(0.000399368 0.00122976 0.00211081)
(0.000444244 0.00144575 0.00229168)
(0.000468581 0.00169896 0.00251651)
(0.000463986 0.00193656 0.00272705)
(0.000435114 0.00218985 0.0029806)
(0.00037643 0.00240819 0.00319178)
(0.000298352 0.00262832 0.0034057)
(0.000199544 0.00280591 0.00353925)
(7.3835e-05 0.00297621 0.00365569)
(-7.30876e-05 0.0031229 0.0036921)
(-0.000239534 0.00326746 0.00374264)
(-0.00041732 0.00339589 0.00374888)
(-0.000601927 0.00350758 0.00378444)
(-0.000790418 0.00359935 0.00379299)
(-0.000979692 0.00365874 0.00382429)
(-0.00117026 0.00370251 0.00384339)
(-0.00135256 0.00371063 0.0038657)
(-0.00152197 0.00370866 0.00386813)
(-0.00166602 0.0036632 0.00383192)
(-0.0017857 0.00360634 0.00372601)
(-0.00187437 0.00348969 0.00354113)
(-0.00194525 0.00336083 0.00326833)
(-0.00198311 0.00317092 0.0029483)
(-0.00199971 0.00297761 0.00258788)
(-0.00196651 0.0027321 0.00225677)
(-0.00190838 0.00249329 0.0019364)
(-0.00178998 0.00221422 0.00166869)
(-0.00164862 0.00194755 0.0014271)
(-0.00145083 0.00165874 0.00123666)
(-0.00125479 0.00140864 0.00107952)
(-0.0010182 0.00113684 0.000962407)
(-0.000797608 0.000888914 0.000870538)
(-0.000596815 0.000677013 0.00078494)
(-0.000440843 0.000511026 0.000696585)
(-0.000322738 0.000365557 0.000596694)
(-0.000223378 0.000270083 0.00044768)
(-0.00013981 0.000189955 0.000350543)
(-7.93845e-05 0.000117214 0.000269596)
(-0.00230308 0.00355861 0.0034841)
(-0.00225035 0.00374498 0.00385445)
(-0.00217313 0.00387153 0.00416476)
(-0.00206926 0.00398517 0.00437318)
(-0.00193793 0.00403891 0.0044883)
(-0.00176932 0.00408233 0.00452478)
(-0.00157876 0.0040808 0.00451512)
(-0.00136443 0.0040708 0.00448503)
(-0.00114922 0.00402301 0.00445709)
(-0.000926441 0.00396217 0.00441701)
(-0.000713107 0.00386692 0.00440367)
(-0.00049529 0.0037561 0.00435977)
(-0.000294296 0.00362668 0.00434977)
(-9.72435e-05 0.00348565 0.00428864)
(7.06386e-05 0.00333959 0.00424552)
(0.000224657 0.00317434 0.00410562)
(0.00034293 0.00300009 0.00394213)
(0.000446845 0.00278601 0.00368284)
(0.000524045 0.00256464 0.00342467)
(0.000578438 0.00230953 0.00312078)
(0.000600388 0.00206537 0.00287087)
(0.000585783 0.00180175 0.00261558)
(0.000541057 0.00156558 0.00242498)
(0.000468264 0.00132119 0.00221765)
(0.000382201 0.00110848 0.00205503)
(0.000312829 0.000891265 0.00186273)
(0.000233814 0.000718588 0.00167951)
(0.000199589 0.000555225 0.00149141)
(0.000146376 0.00041352 0.00125715)
(7.87565e-05 0.000288425 0.00112119)
(3.60981e-05 0.0002067 0.00102681)
(-4.66161e-07 0.000137428 0.000901049)
(-3.98932e-06 7.94288e-05 0.000725479)
(-1.55501e-05 3.40483e-05 0.000315202)
(-2.34854e-05 2.74406e-05 0.000305784)
(1.74787e-06 4.23292e-05 0.00013027)
(-5.65188e-06 5.39458e-05 0.000125648)
(4.22718e-07 5.14808e-05 6.90728e-05)
(-2.68823e-06 6.35187e-05 0.000153135)
(-1.26341e-05 6.60632e-05 0.000112894)
(-6.33933e-06 7.32716e-05 0.00017084)
(-5.15073e-06 5.63748e-05 7.69024e-05)
(-7.80879e-05 2.05613e-05 0.000221329)
(-9.17967e-05 4.02276e-05 0.000490819)
(-1.9827e-05 2.75558e-05 0.000268568)
(2.9308e-06 -7.47158e-06 0.000118995)
(-1.72331e-05 -9.10441e-06 8.72299e-05)
(-2.83904e-05 -4.9168e-06 8.72557e-05)
(-2.5959e-05 5.73277e-06 9.05774e-05)
(-3.08268e-05 6.98882e-06 8.00651e-05)
(-2.7485e-05 8.54367e-06 7.27099e-05)
(-9.62771e-06 1.73695e-05 0.000126645)
(-3.0629e-06 2.76413e-05 0.000174367)
(4.93598e-06 2.03372e-05 0.0001829)
(2.40202e-05 1.81878e-05 0.000213294)
(4.83542e-06 2.41834e-05 0.000182334)
(-2.11851e-05 3.04739e-05 0.000157195)
(-2.18369e-05 1.09514e-05 0.000139886)
(-2.94087e-05 -2.36738e-06 0.000100339)
(-2.42654e-05 8.9718e-06 0.000106654)
(-3.43588e-05 8.01841e-06 0.000102315)
(-3.87438e-05 1.71246e-05 0.000134956)
(5.8297e-06 3.43569e-05 0.000257258)
(1.80974e-05 4.12027e-05 0.000226441)
(-3.09032e-05 1.24493e-06 0.000324628)
(-7.29733e-05 5.23809e-05 0.000566928)
(-2.42213e-05 5.71218e-05 0.000760033)
(2.03386e-05 9.086e-05 0.000867042)
(3.43283e-05 0.000168943 0.000972504)
(6.89685e-05 0.000294467 0.00111637)
(0.000100163 0.000400469 0.00121145)
(0.00014522 0.000515684 0.00129298)
(0.000207627 0.000642864 0.00144445)
(0.000235334 0.000778028 0.00165375)
(0.000230873 0.000967309 0.00181908)
(0.000240773 0.00117022 0.00195591)
(0.000217915 0.00138347 0.00212368)
(0.000188629 0.00157825 0.00225664)
(0.000145479 0.00179758 0.00239223)
(9.16517e-05 0.00196975 0.00246634)
(1.65188e-05 0.00212892 0.00253977)
(-7.85811e-05 0.00226348 0.00255401)
(-0.000187547 0.00240067 0.00258656)
(-0.000305503 0.0025205 0.0025795)
(-0.000425315 0.00263127 0.00259895)
(-0.000547283 0.00271871 0.00258794)
(-0.000667458 0.00277988 0.00259933)
(-0.000790517 0.00282216 0.00259064)
(-0.00090617 0.00283437 0.00259369)
(-0.00101622 0.00282635 0.00257429)
(-0.00111148 0.00277627 0.00254207)
(-0.0011947 0.00269975 0.0024626)
(-0.00125975 0.00256776 0.00234671)
(-0.00131206 0.00242347 0.00217504)
(-0.00132863 0.00223551 0.00198236)
(-0.00131066 0.00204091 0.00176126)
(-0.00123601 0.00179731 0.00156633)
(-0.00114605 0.00156512 0.00137802)
(-0.00100957 0.00130534 0.00122395)
(-0.000860814 0.00106665 0.00108105)
(-0.00069503 0.000830521 0.000977021)
(-0.000554176 0.000656991 0.000884482)
(-0.000420719 0.000502875 0.000797103)
(-0.000323867 0.000380953 0.000702998)
(-0.00025048 0.000287476 0.000618084)
(-0.000181648 0.000217499 0.000483058)
(-0.000116269 0.000152618 0.000396742)
(-7.19686e-05 9.4521e-05 0.000314454)
(-3.4575e-05 5.54851e-05 0.000244077)
(-2.64262e-05 4.26175e-05 0.000178723)
(3.05506e-08 1.3651e-05 -2.38478e-05)
(2.63418e-06 1.31354e-05 -1.48519e-05)
(-2.28768e-05 3.44426e-05 0.000191252)
(-8.75631e-07 -4.03787e-06 1.00923e-05)
(-4.11448e-06 -4.91795e-06 3.25681e-05)
(-8.06338e-06 -1.73985e-06 5.1396e-05)
(-1.03054e-05 -4.96976e-06 6.43996e-05)
(-1.52112e-05 -5.72449e-06 0.000114533)
(-2.17029e-05 -7.23175e-06 0.000132074)
(-2.4159e-05 -1.03701e-05 0.000153861)
(-2.40659e-05 -1.10522e-05 0.000163897)
(-2.48397e-05 -7.95462e-06 0.00015524)
(-2.60873e-05 -8.5118e-06 0.000147238)
(-2.82131e-05 -6.57599e-06 0.000132164)
(-2.48841e-05 -2.95925e-06 0.000112438)
(-1.31434e-05 -2.75669e-06 6.22583e-05)
(-1.15839e-05 -2.42891e-06 4.80356e-05)
(-6.38349e-06 -2.13212e-06 3.02926e-05)
(-6.01938e-06 -3.28658e-06 8.27962e-06)
(-1.89865e-05 -8.32126e-06 0.000138352)
(-1.86365e-05 -7.55471e-06 0.000144956)
(-5.77157e-05 -4.40074e-05 0.000657631)
(-4.58501e-05 -4.51551e-05 0.00059641)
(-3.62024e-05 -3.3687e-05 0.000518621)
(-5.61483e-06 -4.16698e-05 0.000433368)
(-0.00263554 0.00392631 0.00406809)
(-0.00256763 0.00411285 0.00446139)
(-0.00246612 0.00423077 0.00477833)
(-0.0023455 0.0043451 0.00499373)
(-0.00218686 0.00438951 0.00510458)
(-0.00199805 0.00443091 0.00514225)
(-0.00177702 0.00442039 0.00512667)
(-0.00154058 0.00440667 0.00509617)
(-0.00129523 0.00435162 0.00506106)
(-0.00105076 0.0042881 0.00501803)
(-0.000808021 0.00418944 0.00499909)
(-0.000569118 0.00407979 0.00495273)
(-0.000339858 0.00395416 0.0049397)
(-0.000122077 0.00381882 0.00487545)
(7.36458e-05 0.00368107 0.00482903)
(0.000248013 0.00352221 0.00468124)
(0.000393272 0.00335908 0.0045032)
(0.000517696 0.00314872 0.00422009)
(0.000621682 0.00293183 0.00392901)
(0.000698763 0.00267454 0.00358493)
(0.00074672 0.00243276 0.0032946)
(0.000748856 0.00216333 0.00300122)
(0.000720626 0.00192092 0.00278576)
(0.000648259 0.00165693 0.00255458)
(0.000559523 0.00142493 0.00237988)
(0.00045541 0.00117874 0.00216943)
(0.000356833 0.00097239 0.00198012)
(0.000288562 0.000767401 0.0017566)
(0.000220663 0.000610529 0.00149799)
(0.000144539 0.000463249 0.0013139)
(8.64569e-05 0.000356825 0.0012033)
(5.28729e-05 0.000259049 0.00109198)
(9.97895e-06 0.000141334 0.000939182)
(4.01146e-07 8.01334e-05 0.00074217)
(-1.11161e-05 3.67816e-05 0.000323937)
(-1.32305e-05 3.53246e-05 0.000314263)
(3.23965e-06 4.73279e-05 0.000133864)
(6.58823e-07 5.7793e-05 0.00013851)
(4.19081e-06 5.14291e-05 8.26076e-05)
(3.85281e-06 6.54835e-05 0.000169533)
(-4.59811e-06 5.77791e-05 0.000116406)
(-5.01892e-06 6.19982e-05 0.000165669)
(-4.56861e-07 4.71515e-05 8.04373e-05)
(-6.97752e-05 2.31318e-05 0.000465898)
(-4.85202e-06 0.00013611 0.000773367)
(-6.33133e-05 2.11341e-05 0.000478751)
(-1.61854e-06 6.28125e-05 0.00017148)
(5.35966e-06 6.49156e-05 0.000168935)
(-3.7727e-06 5.77019e-05 0.000116426)
(7.39744e-07 4.8073e-05 8.35095e-05)
(4.17029e-06 5.15201e-05 8.1674e-05)
(8.71846e-07 5.82432e-05 0.00013933)
(-9.95201e-06 3.7274e-05 0.000321947)
(6.87616e-06 7.84858e-05 0.000733551)
(1.85553e-05 0.000143263 0.000943745)
(8.01932e-05 0.000258155 0.0011304)
(0.00012778 0.000386583 0.0013606)
(0.000154543 0.000523962 0.00151585)
(0.000213418 0.00065425 0.00168176)
(0.000296361 0.000830807 0.00188354)
(0.000389743 0.00102007 0.00207586)
(0.000501454 0.00125566 0.0022857)
(0.000615916 0.00148362 0.0024508)
(0.000728655 0.00174445 0.002664)
(0.000812018 0.00198758 0.00284642)
(0.00086916 0.00225492 0.00310786)
(0.000881628 0.0025004 0.00335186)
(0.000856017 0.00276591 0.00367984)
(0.000789995 0.0030062 0.00398703)
(0.000688042 0.00325677 0.00434418)
(0.000567049 0.00346976 0.0046271)
(0.000416506 0.0036677 0.00490573)
(0.000254396 0.00382083 0.00506471)
(5.43918e-05 0.00396436 0.00521021)
(-0.000156094 0.00409226 0.00524501)
(-0.000396586 0.00421472 0.00531381)
(-0.000637587 0.00433487 0.00532252)
(-0.00089799 0.0044393 0.00537395)
(-0.00115284 0.00454077 0.00539212)
(-0.00141954 0.00460661 0.00543864)
(-0.00167854 0.00466911 0.00547398)
(-0.00194007 0.00468957 0.00550218)
(-0.0021792 0.004709 0.00551714)
(-0.00239769 0.00467514 0.00548122)
(-0.0025795 0.00463869 0.00538618)
(-0.00273398 0.00453167 0.00518912)
(-0.00299229 0.00477568 0.00557257)
(-0.00280098 0.00486681 0.00574182)
(-0.0025789 0.00487835 0.00582065)
(-0.00233441 0.00490001 0.00585878)
(-0.00206806 0.0048627 0.00584894)
(-0.00179141 0.00483361 0.00582817)
(-0.00151345 0.0047601 0.00579363)
(-0.00123615 0.00469104 0.00574666)
(-0.000965071 0.00458735 0.00572416)
(-0.000695283 0.00448869 0.00566885)
(-0.000437775 0.00438044 0.00565596)
(-0.000184441 0.00427422 0.00558414)
(4.86838e-05 0.00416834 0.00555321)
(0.000268478 0.00404603 0.00542086)
(0.000458256 0.0039207 0.0052894)
(0.000630309 0.00374241 0.0050442)
(0.000776939 0.00355285 0.00479595)
(0.000896401 0.00331471 0.00445941)
(0.000984833 0.00309097 0.00415385)
(0.00102693 0.0028308 0.00380397)
(0.0010365 0.00259278 0.00352725)
(0.000996178 0.00232384 0.00322349)
(0.000931015 0.00208059 0.00301169)
(0.000823916 0.00181069 0.0027782)
(0.000709708 0.00156944 0.00261709)
(0.000576673 0.00130847 0.00240937)
(0.000454727 0.00108934 0.00223246)
(0.000335478 0.000868059 0.00201046)
(0.000250562 0.000696428 0.00179897)
(0.000190786 0.000522095 0.00157827)
(0.000131683 0.000393875 0.00130976)
(7.61715e-05 0.00026692 0.00111564)
(2.923e-05 0.000139019 0.000921992)
(3.84221e-06 5.9519e-05 0.000748918)
(-1.28041e-05 2.6613e-05 0.000322405)
(-1.18475e-05 3.35086e-05 0.000324998)
(3.0102e-06 4.51522e-05 0.000135886)
(1.15074e-06 5.73596e-05 0.000142064)
(1.44621e-05 4.74412e-05 8.20322e-05)
(2.03952e-05 6.63302e-05 0.000177245)
(5.06159e-06 5.2498e-05 0.000115302)
(-1.60881e-07 5.98021e-05 0.000161667)
(1.73532e-06 4.63904e-05 7.67067e-05)
(-5.46999e-05 1.78194e-05 0.000467923)
(2.54418e-05 0.000132684 0.000764392)
(-9.75091e-06 1.74509e-05 0.000542779)
(-5.61277e-05 1.83018e-05 0.000486504)
(-5.11671e-05 4.13742e-07 0.000221784)
(-2.44498e-06 6.63407e-06 0.000131603)
(-6.5673e-06 -8.11058e-06 0.000127977)
(-2.45328e-05 1.17967e-06 9.14037e-05)
(-2.5717e-05 9.62804e-06 9.5093e-05)
(-3.40092e-05 1.4122e-05 8.8673e-05)
(-6.53711e-05 2.22173e-05 0.000196657)
(-0.000107198 3.72875e-05 0.000338829)
(-9.23374e-05 2.75506e-06 0.000449027)
(-6.37085e-05 1.09045e-05 0.000223814)
(-6.86087e-05 2.76787e-05 0.00019451)
(-0.000109126 1.92849e-05 0.000233687)
(-6.56326e-05 1.76177e-05 0.000141087)
(-2.1277e-05 -1.24531e-06 5.6993e-05)
(-3.48477e-05 -2.41094e-06 9.27578e-05)
(-4.20942e-05 -1.37295e-05 0.00013122)
(-4.37241e-05 -3.47224e-06 0.000143328)
(-5.39003e-05 2.97407e-06 0.000129038)
(-3.58258e-05 3.21067e-06 9.014e-05)
(-2.73114e-05 8.64608e-06 5.41189e-05)
(-2.00931e-05 -1.44551e-06 5.1902e-05)
(-3.31879e-05 -1.75887e-06 8.34922e-05)
(-4.0784e-05 -1.21832e-05 0.000118604)
(-3.8689e-05 -3.1868e-06 0.000125454)
(-4.64169e-05 2.57177e-06 0.000114379)
(-3.28004e-05 4.50055e-06 7.76297e-05)
(-2.50264e-05 8.33877e-06 4.7658e-05)
(-1.88299e-05 4.32768e-07 4.61945e-05)
(-2.88345e-05 5.55303e-07 6.87076e-05)
(-3.74184e-05 -6.46165e-06 0.000106639)
(-5.19547e-05 -8.96485e-06 0.000147773)
(-4.7818e-05 -1.18841e-06 0.000153881)
(-5.36655e-05 2.22744e-07 0.000139345)
(-3.75629e-05 2.36993e-06 9.93921e-05)
(-2.98906e-05 6.51904e-06 5.98819e-05)
(-2.2466e-05 -8.45873e-08 5.34313e-05)
(-3.32231e-05 -8.25339e-07 8.51898e-05)
(-4.22128e-05 -8.393e-06 0.00012337)
(-5.68387e-05 -1.17724e-05 0.000170512)
(-4.93933e-05 -5.34895e-06 0.000169697)
(-5.87246e-05 -1.51272e-06 0.000156932)
(-4.12461e-05 7.76617e-07 0.000112819)
(-3.23618e-05 4.32023e-06 7.16334e-05)
(-3.08602e-05 3.09927e-06 0.000101634)
(-3.70239e-05 3.93599e-06 8.42125e-05)
(-3.35928e-05 -6.60889e-06 8.89526e-05)
(-2.38688e-05 -5.32059e-06 6.90101e-05)
(-1.73867e-05 -2.66048e-06 6.35169e-05)
(-5.03462e-05 2.31503e-05 0.000152256)
(-7.46016e-05 1.57434e-05 0.000172025)
(-0.000116953 1.5686e-05 0.000250784)
(-8.51724e-05 2.24297e-05 0.000234411)
(-7.34085e-05 1.05596e-05 0.000248066)
(-1.39391e-05 6.38032e-05 0.000117922)
(-7.21937e-06 7.36642e-05 0.000178926)
(-8.9412e-07 6.47184e-05 0.00015649)
(2.9507e-06 5.21409e-05 8.08251e-05)
(-3.1253e-06 5.63838e-05 0.000122475)
(-9.41241e-06 2.82317e-05 0.000311731)
(9.81998e-06 7.66758e-05 0.000744118)
(9.05233e-06 0.000129797 0.000913889)
(5.7242e-05 0.00021937 0.00104293)
(0.000112011 0.000326764 0.00116906)
(0.000157113 0.00045797 0.0013918)
(0.000177361 0.000594485 0.00152021)
(0.000219829 0.000736778 0.00163586)
(0.000269686 0.000909511 0.00179175)
(0.000308022 0.00109422 0.00195238)
(0.000315415 0.00132065 0.00213968)
(0.000327408 0.00154503 0.00230808)
(0.000312232 0.00178159 0.00251413)
(0.000275658 0.00199384 0.00268009)
(0.000217167 0.00221629 0.00285168)
(0.000146415 0.00239656 0.0029518)
(4.44855e-05 0.00256446 0.00304567)
(-7.21079e-05 0.00270942 0.00306939)
(-0.000211715 0.00285119 0.00311127)
(-0.000354901 0.00297694 0.00310968)
(-0.000509176 0.00308728 0.00313794)
(-0.000660012 0.00317564 0.00313575)
(-0.000817614 0.00323473 0.00315889)
(-0.000970113 0.00327555 0.00316306)
(-0.00112266 0.00328437 0.00317748)
(-0.00125886 0.0032778 0.00316759)
(-0.00138308 0.00323138 0.00313533)
(-0.00148192 0.003165 0.00304071)
(-0.00156345 0.00304458 0.00289349)
(-0.0016225 0.0029067 0.00266912)
(-0.00165353 0.00271704 0.00241742)
(-0.00165229 0.00251611 0.00212514)
(-0.00160314 0.00226677 0.00186477)
(-0.00152411 0.00202217 0.00160469)
(-0.00138893 0.00175017 0.00139608)
(-0.00123709 0.00149242 0.00120603)
(-0.00103633 0.00121112 0.00107582)
(-0.000855718 0.000984134 0.00095983)
(-0.00066349 0.000765024 0.000872557)
(-0.000507076 0.000579916 0.000783544)
(-0.000370088 0.000434467 0.00069695)
(-0.000276407 0.000342343 0.000607965)
(-0.000202426 0.000250093 0.000517065)
(-0.000137411 0.000168345 0.000376842)
(-7.56931e-05 0.000108912 0.000291297)
(-3.32726e-05 5.69942e-05 0.000222494)
(-3.75626e-05 6.35426e-05 0.000158297)
(1.17889e-05 1.0257e-05 6.73003e-05)
(-3.02468e-06 2.43569e-05 -9.06797e-05)
(-6.60785e-06 4.32743e-05 -8.1545e-05)
(-3.99077e-06 2.44845e-05 -9.57869e-05)
(-9.7268e-06 1.88643e-05 3.31743e-05)
(-1.64204e-05 1.89985e-05 3.99179e-05)
(-9.33943e-06 6.89761e-06 1.06153e-05)
(-6.06777e-06 3.45708e-06 -9.63416e-06)
(-1.88457e-06 -1.56694e-06 -2.87138e-05)
(-3.15421e-07 -4.56651e-06 -3.67436e-05)
(1.2201e-08 -6.42496e-06 -3.84611e-05)
(-5.19495e-06 -6.97156e-06 -2.95014e-05)
(-6.6824e-07 -8.04762e-06 -2.0333e-05)
(-2.31749e-06 -1.44867e-05 -3.75847e-05)
(-6.02097e-06 -1.32e-05 -4.73583e-06)
(-9.64508e-06 -1.02224e-05 2.09537e-05)
(-9.76706e-06 -5.67717e-06 4.00634e-05)
(-1.79339e-05 -9.6795e-06 9.40501e-05)
(-3.03004e-05 -1.36866e-05 9.99659e-05)
(-2.69656e-05 -1.16874e-05 0.000126143)
(-3.00729e-05 -1.49828e-05 0.000146065)
(-2.87727e-05 -1.74848e-05 0.000160456)
(-2.8817e-05 -1.94935e-05 0.000172882)
(-2.6805e-05 -2.35922e-05 0.000186755)
(-2.64541e-05 -2.81838e-05 0.000203164)
(-2.92023e-05 -2.69737e-05 0.000204037)
(-2.99341e-05 -2.22788e-05 0.000188178)
(-3.24501e-05 -1.77104e-05 0.000174312)
(-3.25873e-05 -1.59016e-05 0.00016143)
(-3.4955e-05 -1.34386e-05 0.000146661)
(-3.76271e-05 -1.70513e-05 0.000125844)
(-1.69759e-05 -7.99483e-06 9.70084e-05)
(-2.38559e-05 -1.29954e-05 0.000120169)
(-2.925e-05 -1.29788e-05 0.000146176)
(-2.76987e-05 -1.57065e-05 0.000160339)
(-2.83868e-05 -1.75468e-05 0.000173012)
(-2.65918e-05 -2.21445e-05 0.00018643)
(-3.04779e-05 -1.97452e-05 0.000188367)
(-3.21794e-05 -1.55208e-05 0.000175327)
(-3.18578e-05 -1.36546e-05 0.000163679)
(-3.47233e-05 -1.12323e-05 0.000148166)
(-3.47592e-05 -1.30505e-05 0.000127385)
(-1.66356e-05 -7.25722e-06 0.000107145)
(-2.73393e-05 -9.32472e-06 0.000122107)
(-2.45337e-05 -6.67059e-06 0.000142396)
(-2.58849e-05 -1.2631e-05 0.000162416)
(-2.71328e-05 -1.486e-05 0.000172061)
(-2.58406e-05 -1.90919e-05 0.000184525)
(-2.83271e-05 -1.50495e-05 0.000179916)
(-3.02376e-05 -1.14433e-05 0.000169645)
(-2.98838e-05 -9.90543e-06 0.000159332)
(-3.41131e-05 -1.04816e-05 0.000138579)
(-4.2112e-05 -2.90465e-05 0.000365844)
(-3.8437e-05 -3.67379e-05 0.000310772)
(-1.71483e-05 -3.92675e-05 0.000246711)
(7.89173e-06 -5.05298e-05 0.000148993)
(2.57231e-05 -4.05516e-05 3.33165e-05)
(4.71326e-05 -5.29412e-05 -7.97365e-05)
(6.44009e-05 -5.51186e-05 -0.00019439)
(7.14433e-06 -6.37567e-06 -4.19939e-05)
(5.82551e-06 -5.32796e-06 -3.39803e-05)
(2.74134e-06 -3.68255e-06 -2.70586e-05)
(2.57037e-06 -6.62185e-06 -1.82163e-05)
(1.49401e-06 -1.06173e-05 -2.10935e-05)
(-3.04583e-06 -5.25128e-06 1.24124e-05)
(-8.48072e-06 -6.91967e-06 3.49096e-05)
(-9.69757e-06 -4.41366e-06 5.18727e-05)
(-2.0576e-05 -8.46319e-06 5.31492e-05)
(-1.35297e-05 -7.22312e-06 5.38633e-05)
(-1.15585e-05 -6.09662e-06 3.86835e-05)
(-1.901e-05 -8.88793e-06 4.0612e-05)
(-1.28617e-05 -9.51809e-06 1.83212e-05)
(-1.03145e-05 -1.32178e-05 -7.63736e-06)
(-7.77474e-06 -1.35467e-05 -3.74395e-05)
(3.16975e-06 -7.66444e-06 -2.42314e-05)
(-3.93961e-06 -1.27257e-05 -3.95415e-05)
(-3.09118e-06 -9.86107e-06 -1.22643e-05)
(-6.61823e-06 -8.12572e-06 1.60494e-05)
(-9.43897e-06 -6.92592e-06 1.53994e-05)
(-1.60025e-05 -7.94344e-06 3.81961e-05)
(-2.37306e-05 -2.59655e-05 0.000100574)
(-5.93828e-06 -2.76968e-05 3.00862e-05)
(7.60651e-06 -3.62133e-05 -4.87233e-05)
(-6.74164e-06 -1.13866e-05 -1.63217e-05)
(1.0302e-05 -3.69846e-05 -0.000111552)
(2.36103e-05 -3.78487e-05 -0.000164791)
(2.71143e-05 -2.8995e-05 -0.00021635)
(1.88598e-05 -9.34172e-06 -0.000220737)
(4.42375e-06 1.27242e-05 -0.000195124)
(-2.49302e-05 4.31349e-05 -0.00012302)
(-3.76157e-05 4.49417e-05 -2.03771e-05)
(-2.94558e-05 1.5622e-05 8.50824e-05)
(-1.77547e-05 9.84015e-06 0.00010309)
(-1.2642e-05 3.33863e-05 -8.49644e-05)
(-1.04456e-05 3.80745e-05 -9.04401e-05)
(-9.28493e-06 2.69418e-05 -9.18301e-05)
(-1.91369e-05 1.6062e-05 4.90796e-05)
(-3.21193e-05 1.37126e-05 5.22833e-05)
(-1.609e-05 7.17102e-06 1.87351e-05)
(-8.29491e-06 4.33275e-06 -6.65536e-06)
(-1.94768e-06 -1.12305e-06 -2.80458e-05)
(-2.48098e-07 -4.22406e-06 -3.77512e-05)
(1.67793e-06 -6.28813e-06 -4.19162e-05)
(-3.48928e-06 -6.42047e-06 -3.38532e-05)
(4.40003e-06 -2.41125e-06 -3.2217e-05)
(4.76402e-06 -6.88615e-06 -4.03178e-05)
(3.39872e-06 -6.21255e-06 -3.76603e-05)
(1.29349e-06 -4.37425e-06 -2.95304e-05)
(-4.05719e-06 6.49558e-09 -9.2935e-06)
(-8.30703e-06 3.87273e-06 1.20072e-05)
(-1.75472e-05 1.71223e-05 4.25954e-05)
(-1.23126e-05 1.78441e-05 3.56056e-05)
(-8.72819e-07 2.71154e-05 -9.63315e-05)
(1.62944e-06 3.57153e-05 -8.81659e-05)
(4.06428e-06 1.89103e-05 -0.000109904)
(4.92662e-06 2.23784e-05 -0.00010799)
(-9.42169e-07 3.76976e-06 -1.06248e-05)
(1.33369e-05 5.2676e-06 7.32426e-05)
(1.445e-05 8.12189e-06 -7.63702e-06)
(-6.11796e-06 1.72036e-05 3.70884e-05)
(-7.22105e-06 3.22585e-06 1.00911e-05)
(-4.63318e-06 -2.92042e-07 -1.12235e-05)
(-2.25861e-07 -4.35403e-06 -2.89017e-05)
(1.988e-06 -5.53262e-06 -3.59036e-05)
(2.99839e-06 -4.87088e-06 -3.60625e-05)
(1.25346e-06 -3.60373e-06 -2.95061e-05)
(-5.62865e-06 -1.24976e-05 -3.97835e-05)
(-5.70201e-06 -9.34961e-06 -1.95093e-05)
(-8.96151e-06 -1.24123e-05 3.06828e-06)
(-1.21671e-05 -8.15116e-06 2.71988e-05)
(-1.24687e-05 -6.79812e-06 4.46904e-05)
(-1.84344e-05 -7.73754e-06 8.95177e-05)
(-2.58734e-05 -1.30735e-05 0.00010156)
(-3.0269e-05 -1.45007e-05 0.0001321)
(-3.09575e-05 -1.54559e-05 0.000145395)
(-2.92541e-05 -1.83248e-05 0.000158862)
(-2.9223e-05 -1.9895e-05 0.000171295)
(-2.69111e-05 -2.35479e-05 0.000185293)
(-2.6394e-05 -2.80383e-05 0.000201937)
(-2.90899e-05 -2.80031e-05 0.000204224)
(-2.99157e-05 -2.36355e-05 0.000187842)
(-3.24476e-05 -1.95567e-05 0.000173844)
(-3.29326e-05 -1.77273e-05 0.000161432)
(-3.46576e-05 -1.48231e-05 0.000146754)
(-3.51962e-05 -1.52987e-05 0.000131738)
(-3.72922e-05 -1.65942e-05 0.000105886)
(-4.91079e-05 -4.65701e-05 0.000262936)
(-4.52729e-05 -5.17812e-05 0.000201991)
(-2.16905e-05 -7.68563e-05 0.000100697)
(-5.40261e-06 -8.77486e-05 -2.22191e-05)
(-1.37761e-06 -7.41e-05 -0.000127542)
(1.88979e-05 -7.45236e-05 -0.000207587)
(2.50529e-05 -5.72512e-05 -0.000293327)
(6.4989e-06 -2.10104e-05 -0.000314157)
(-1.86087e-05 2.05302e-05 -0.000284694)
(-6.16871e-05 7.99376e-05 -0.00018537)
(-7.15579e-05 0.000100942 -2.84907e-05)
(-4.94098e-05 8.52894e-05 0.000121372)
(-3.80128e-05 6.58223e-05 0.000179297)
(5.05925e-06 3.33809e-05 0.000132714)
(-1.92016e-05 3.15591e-05 0.000210967)
(-3.0196e-06 9.25261e-06 -1.4127e-05)
(-2.10893e-06 1.29633e-05 -1.69361e-05)
(4.67206e-06 1.77234e-05 -0.000109304)