/*--------------------------------*- C++ -*----------------------------------*\
| =========                 |                                                 |
| \\      /  F ield         | OpenFOAM: The Open Source CFD Toolbox           |
|  \\    /   O peration     | Version:  5.0                                   |
|   \\  /    A nd           | Web:      www.OpenFOAM.org                      |
|    \\/     M anipulation  |                                                 |
\*---------------------------------------------------------------------------*/
FoamFile
{
    version     2.0;
    format      ascii;
    class       volVectorField;
    location    "60";
    object      URest;
}
// * * * * * * * * * * * * * * * * * * * * * * * * * * * * * * * * * * * * * //

dimensions      [0 1 -1 0 0 0 0];

internalField   nonuniform List<vector> 
36177
(
(-0.000355031 0.000168771 0.00164549)
(-0.000358203 0.000142873 0.00163857)
(-0.000362258 0.000115062 0.00159804)
(-0.000363581 9.38747e-05 0.00155069)
(-0.000364984 6.41425e-05 0.0014915)
(-0.000357812 3.13337e-05 0.00139972)
(-0.000346345 1.01308e-05 0.00127007)
(-0.000310794 6.22659e-06 0.00106517)
(-0.000299221 5.52055e-05 0.000996319)
(-0.000333854 0.000123481 0.00131343)
(-0.000351944 7.61528e-05 0.0014885)
(-0.000307238 2.20973e-05 0.00129722)
(-0.000266437 -6.04806e-07 0.00113039)
(-0.000218868 -2.70388e-05 0.000916143)
(-0.000205311 -2.31784e-05 0.000823772)
(-0.000254396 -1.11648e-05 0.00106224)
(-0.00026959 -3.92477e-05 0.00104501)
(-0.000223331 -2.48948e-05 0.000889944)
(-0.000243797 -2.2488e-05 0.00106905)
(-0.000259716 -6.90448e-05 0.00103344)
(-0.00022913 -4.15157e-05 0.00085393)
(-0.000243539 -1.69203e-05 0.00100512)
(-0.000233538 -6.6406e-05 0.000957088)
(-0.000197073 -5.2911e-05 0.000787842)
(-0.000217321 -2.81089e-05 0.000917042)
(-0.000198136 -5.92366e-05 0.000839141)
(-0.000147081 -5.47649e-05 0.000653579)
(-0.000172648 -6.08934e-05 0.000716134)
(-0.000188636 -5.60994e-05 0.00075309)
(-0.000209212 -5.239e-05 0.000809446)
(-0.00020937 -5.06145e-05 0.00085618)
(-0.000206302 -4.42874e-05 0.00090612)
(-0.000177866 -7.76223e-05 0.000781774)
(-0.00012604 -6.38412e-05 0.00058703)
(-0.000141575 -6.47745e-05 0.000622989)
(-0.000138251 -6.57887e-05 0.000636675)
(-0.000145141 -6.38558e-05 0.000630944)
(-0.000134254 -6.40913e-05 0.00062029)
(-0.000135289 -6.25004e-05 0.000602384)
(-0.000124398 -5.78347e-05 0.000564407)
(-0.000118569 -4.70488e-05 0.00050503)
(-0.000154093 -5.84101e-05 0.000645956)
(-0.000118414 -6.62353e-05 0.000718706)
(-0.000119697 -7.57973e-05 0.000632754)
(-0.000106539 -7.69073e-05 0.000570598)
(-0.000116023 -6.75622e-05 0.000497073)
(-0.000157888 -7.22439e-05 0.000617641)
(-0.000129688 -7.30669e-05 0.000679944)
(-0.000121079 -7.27196e-05 0.000611095)
(-9.56384e-05 -7.36445e-05 0.000534965)
(-9.35811e-05 -6.71946e-05 0.000447201)
(-0.000130953 -8.19931e-05 0.00054176)
(-0.000103169 -8.82531e-05 0.000587557)
(-0.000103816 -8.26315e-05 0.000486808)
(-0.000135688 -9.24482e-05 0.000549324)
(-0.000104754 -9.45178e-05 0.00057688)
(-9.9912e-05 -8.70334e-05 0.000470524)
(-0.000131188 -9.09399e-05 0.000515651)
(-9.10491e-05 -8.82938e-05 0.000539934)
(-8.87022e-05 -7.6966e-05 0.000432239)
(-0.00010983 -8.35379e-05 0.00045653)
(-6.93996e-05 -8.30998e-05 0.000480206)
(-5.99532e-05 -7.28031e-05 0.000369864)
(-8.00486e-05 -8.2638e-05 0.000371148)
(-9.94645e-05 -9.91742e-05 0.000451612)
(-0.000124916 -0.000101509 0.000531657)
(-7.49969e-05 -8.68841e-05 0.000512124)
(-6.4106e-05 -7.00908e-05 0.000354677)
(-7.53842e-05 -6.80096e-05 0.000309117)
(-7.64837e-05 -7.75742e-05 0.000356136)
(-8.10348e-05 -8.34724e-05 0.00038105)
(-7.81991e-05 -8.68063e-05 0.000404178)
(-7.70942e-05 -8.71946e-05 0.000414392)
(-7.55188e-05 -8.61e-05 0.000425504)
(-7.27413e-05 -8.48137e-05 0.000420495)
(-7.08598e-05 -8.2754e-05 0.000419937)
(-6.51759e-05 -8.12496e-05 0.000405147)
(-5.9072e-05 -7.86022e-05 0.000393947)
(-5.28374e-05 -7.51612e-05 0.000372352)
(-4.1073e-05 -7.26418e-05 0.000355637)
(-3.23202e-05 -7.01225e-05 0.000331458)
(-2.70269e-05 -6.30185e-05 0.000297957)
(-3.27242e-05 -5.46847e-05 0.000319476)
(-4.52185e-05 -5.48817e-05 0.000434471)
(-1.77021e-05 -6.40768e-05 0.000422195)
(-9.54273e-06 -6.24832e-05 0.000335027)
(-1.80704e-05 -6.20998e-05 0.00034739)
(-5.05101e-05 -5.84181e-05 0.000452649)
(-2.01007e-05 -5.75763e-05 0.000431049)
(-4.15658e-06 -5.07615e-05 0.00034269)
(-1.01555e-05 -5.36228e-05 0.000346962)
(-4.04309e-05 -5.16507e-05 0.000456429)
(-1.65033e-05 -5.58249e-05 0.000432978)
(-5.14623e-06 -4.98636e-05 0.0003328)
(-5.58958e-06 -4.86509e-05 0.000318663)
(-2.00268e-05 -4.64481e-05 0.000388024)
(-8.9723e-06 -4.86711e-05 0.000348133)
(-9.64814e-06 -4.10611e-05 0.000306088)
(-1.25433e-05 -3.92501e-05 0.000353395)
(-1.10002e-05 -4.05442e-05 0.000395349)
(-2.11339e-05 -3.08504e-05 0.000459057)
(3.0959e-06 -2.78542e-05 0.000397944)
(3.64892e-06 -2.69482e-05 0.00032378)
(-6.75574e-06 -2.6796e-05 0.000353736)
(-8.76337e-06 -2.6329e-05 0.000373785)
(-1.3197e-05 -1.42587e-05 0.000408055)
(-0.000287019 0.000135278 0.00106882)
(-0.000290171 0.00011403 0.00107451)
(-0.000295174 9.28756e-05 0.00105509)
(-0.000292897 7.7402e-05 0.001017)
(-0.000286342 5.41487e-05 0.000951644)
(-0.000271385 2.51678e-05 0.000866467)
(-0.000257837 1.26381e-05 0.000768024)
(-0.000229119 1.15634e-05 0.000643624)
(-0.000181811 4.11902e-05 0.000548904)
(-0.000217713 8.48279e-05 0.000772659)
(-0.000185762 5.587e-05 0.000791574)
(-0.000317187 7.8083e-05 0.00111644)
(-0.000253038 1.8949e-05 0.000914752)
(-0.000206145 7.51944e-07 0.000733452)
(-0.000178453 -1.40154e-05 0.000623162)
(-0.000140959 -1.04403e-05 0.00048176)
(-0.000166381 -1.02257e-05 0.000617813)
(-0.00013247 -1.2208e-06 0.000593727)
(-0.000234242 -1.93916e-05 0.000744274)
(-0.000144316 -2.13488e-05 0.000530072)
(-0.000164622 -2.40893e-05 0.000662408)
(-0.000133274 -1.70969e-05 0.00062304)
(-0.000227666 -4.78484e-05 0.00076336)
(-0.000150805 -2.9308e-05 0.000501965)
(-0.000168575 -2.23393e-05 0.000632441)
(-0.000130308 -5.97806e-06 0.000602918)
(-0.000203446 -4.48626e-05 0.000718375)
(-0.000134667 -4.19552e-05 0.000472461)
(-0.000151372 -3.00557e-05 0.000575303)
(-0.000116631 -1.14961e-05 0.000535388)
(-0.000178919 -3.69642e-05 0.000640181)
(-0.000104167 -4.33195e-05 0.00040452)
(-0.000135616 -5.19715e-05 0.000444883)
(-0.000136744 -4.1022e-05 0.000491809)
(-0.000105827 -1.3825e-05 0.000374441)
(-0.000157934 -2.5222e-05 0.00051557)
(-0.000147037 -3.95014e-05 0.000462505)
(-0.000152178 -4.42809e-05 0.000524214)
(-0.000118822 -1.16881e-05 0.000451432)
(-0.000172373 -2.79137e-05 0.000575704)
(-0.000148821 -5.0993e-05 0.000602983)
(-0.000109995 -2.56765e-05 0.000530334)
(-0.000162971 -5.87807e-05 0.000620165)
(-9.59527e-05 -5.00347e-05 0.000373881)
(-0.000111582 -5.65023e-05 0.000393665)
(-0.000117649 -4.36598e-05 0.000413302)
(-0.00011617 -3.00053e-05 0.000407882)
(-9.66473e-05 -1.38125e-05 0.00035078)
(-0.000126936 -2.01622e-05 0.00040975)
(-0.000116332 -4.41523e-05 0.000411021)
(-0.000113534 -5.45598e-05 0.000397141)
(-0.000117402 -5.77092e-05 0.000402184)
(-0.000119267 -4.41025e-05 0.000408454)
(-0.00011311 -3.62976e-05 0.000401914)
(-9.23437e-05 -1.67045e-05 0.000341615)
(-0.000121396 -2.29154e-05 0.000399514)
(-0.000115063 -4.28031e-05 0.000399434)
(-0.000114091 -5.18263e-05 0.000388481)
(-0.000107722 -5.37518e-05 0.000377812)
(-0.000111519 -4.15247e-05 0.00039092)
(-0.00010213 -3.50283e-05 0.000381721)
(-8.46622e-05 -1.76351e-05 0.000322623)
(-0.000104377 -2.15759e-05 0.000370706)
(-0.000104601 -3.89375e-05 0.000369882)
(-0.000103795 -4.64951e-05 0.000352277)
(-9.01893e-05 -3.88768e-05 0.000327508)
(-9.83676e-05 -2.92233e-05 0.00032594)
(-8.8407e-05 -3.24698e-05 0.000344504)
(-7.04202e-05 -1.8681e-05 0.000285249)
(-9.18982e-05 -2.00339e-05 0.000324842)
(-6.54757e-05 -2.06874e-05 0.000304579)
(-8.31495e-05 -3.17149e-05 0.000426459)
(-0.000114032 -5.22431e-05 0.000487122)
(-0.000127606 -6.39196e-05 0.000509131)
(-0.000320757 -0.000137011 0.00145714)
(-0.000371976 -0.000140185 0.00171809)
(-0.000423234 -0.00025144 0.00233402)
(-0.000536088 -0.000222592 0.00302809)
(-0.000666232 -0.00021849 0.00378257)
(-0.000772241 -0.000212233 0.00445561)
(-0.000903176 -0.000233129 0.0050807)
(-0.0010274 -0.000245341 0.00563284)
(-0.0011334 -0.000278502 0.00612823)
(-0.0012485 -0.000325604 0.00669287)
(-0.00137638 -0.000392363 0.00713281)
(-0.00149843 -0.000474569 0.00762079)
(-0.00162032 -0.000566484 0.00800296)
(-0.00172589 -0.00066646 0.00841126)
(-0.00182741 -0.0007709 0.00872651)
(-0.00190827 -0.00087632 0.00905344)
(-0.00198415 -0.000982537 0.00929984)
(-0.00203618 -0.0010837 0.00953774)
(-0.00207997 -0.00118014 0.00971314)
(-0.0020999 -0.00126666 0.00986161)
(-0.00211146 -0.00134472 0.00996438)
(-0.00210115 -0.00141015 0.010029)
(-0.00208214 -0.00146293 0.0100672)
(-0.00204275 -0.00150153 0.0100535)
(-0.00199412 -0.00152318 0.0100307)
(-0.00192843 -0.00152614 0.00994892)
(-0.00185461 -0.00151002 0.00987171)
(-0.00176655 -0.00147671 0.00971691)
(-0.00167188 -0.00142008 0.00957757)
(-0.00157075 -0.00134376 0.00934691)
(-0.00147029 -0.00124478 0.00913882)
(-0.00137112 -0.00113089 0.00882031)
(-0.00127757 -0.000997472 0.00854096)
(-0.00119486 -0.000854116 0.00814931)
(-0.00112315 -0.000699543 0.00781373)
(-0.00106522 -0.000544899 0.00736845)
(-0.0010162 -0.000389385 0.00699917)
(-0.000978349 -0.000242499 0.0065257)
(-0.000942279 -0.000106961 0.00614409)
(-0.000912572 1.0556e-05 0.00566527)
(-0.000874018 0.000110661 0.00528398)
(-0.00083387 0.000186642 0.00480576)
(-0.000774684 0.000238907 0.00442512)
(-0.000709146 0.000264398 0.00394066)
(-0.000611985 0.000263093 0.00355529)
(-0.000522266 0.000230453 0.00311573)
(-0.000430326 0.000201721 0.00268916)
(-0.000333594 0.000144124 0.00224612)
(-0.00134906 -0.00132006 0.00943613)
(-0.00145306 -0.00146902 0.00972689)
(-0.00157054 -0.00159165 0.0100575)
(-0.00168341 -0.00169992 0.0102724)
(-0.00180416 -0.0017814 0.0105109)
(-0.00191222 -0.00184098 0.0106537)
(-0.00201939 -0.00187291 0.0108149)
(-0.00210464 -0.00188564 0.0108923)
(-0.00218793 -0.00187703 0.010978)
(-0.00224673 -0.00184636 0.0110019)
(-0.00230148 -0.00179748 0.0110221)
(-0.00232706 -0.00173095 0.0109835)
(-0.00234927 -0.00165268 0.0109244)
(-0.00234058 -0.00155757 0.0108215)
(-0.00232947 -0.00145621 0.0106783)
(-0.00228536 -0.00134018 0.010501)
(-0.002239 -0.00122301 0.0102692)
(-0.00215955 -0.00109549 0.0100249)
(-0.00208181 -0.000973143 0.00971251)
(-0.00197398 -0.000843883 0.00940613)
(-0.00186963 -0.000722108 0.00902113)
(-0.00173796 -0.000602442 0.00865549)
(-0.00161609 -0.000497662 0.00819514)
(-0.00147441 -0.000403606 0.00777019)
(-0.00134672 -0.000329841 0.00722857)
(-0.00120993 -0.000271802 0.00673347)
(-0.00108325 -0.000250249 0.00612185)
(-0.000942271 -0.00021528 0.00554824)
(-0.000818681 -0.000207656 0.00484168)
(-0.000703454 -0.000202518 0.00416872)
(-0.000609241 -0.000199318 0.0034557)
(-0.000526682 -0.000179216 0.00268056)
(-0.000457619 -0.000216901 0.00195644)
(-0.000300873 -0.000152481 0.00127279)
(-0.000304302 -0.000121227 0.0012051)
(-0.000231318 -9.36918e-05 0.0011224)
(-0.00023747 -8.09237e-05 0.00116267)
(-0.000203763 -7.95009e-05 0.000875464)
(-0.000263769 -7.96011e-05 0.00123116)
(-0.000271007 -0.000150966 0.000975476)
(-0.000228198 -0.000115736 0.0011499)
(-0.000185746 -9.87701e-05 0.00082625)
(-0.000234665 -8.14669e-05 0.00107931)
(-0.00034108 -0.000148364 0.0014792)
(-0.000182981 -6.04323e-05 0.000899179)
(-6.3511e-05 -8.81842e-06 0.000293266)
(-7.01147e-05 -1.79948e-05 0.000277434)
(-8.58074e-05 -2.40064e-05 0.000354095)
(-7.63912e-05 -1.30845e-05 0.000290189)
(-9.16644e-05 -1.90452e-05 0.000326594)
(-5.05092e-05 -2.00954e-05 0.000268315)
(-7.38691e-05 -3.2411e-05 0.000322513)
(-0.000103208 -5.76418e-05 0.000410991)
(-0.000101109 -6.64186e-05 0.000442123)
(-0.000101134 -6.46059e-05 0.000410958)
(-9.69371e-05 -6.74128e-05 0.000362934)
(-9.24769e-05 -4.91613e-05 0.000315237)
(-9.45826e-05 -3.73412e-05 0.000325806)
(-9.48663e-05 -4.03205e-05 0.00035801)
(-7.76101e-05 -1.98571e-05 0.000302296)
(-9.76793e-05 -2.8733e-05 0.000334372)
(-6.91226e-05 -3.07713e-05 0.000298538)
(-9.37298e-05 -3.34287e-05 0.000398455)
(-0.000124733 -5.48484e-05 0.000463392)
(-0.000131927 -6.65892e-05 0.000484602)
(-0.000313978 -0.000159108 0.00142494)
(-0.000360911 -0.000167914 0.00166274)
(-0.000430284 -0.000270638 0.00224441)
(-0.000526381 -0.000245032 0.00290401)
(-0.000627728 -0.000245905 0.00358499)
(-0.000729005 -0.000268703 0.00418877)
(-0.000822464 -0.000272664 0.00472279)
(-0.000949467 -0.000298781 0.00520792)
(-0.00105524 -0.000320846 0.00563818)
(-0.00114463 -0.000355663 0.0060202)
(-0.00123524 -0.000396672 0.0064473)
(-0.00132264 -0.000449395 0.00677862)
(-0.00140183 -0.000509529 0.0071206)
(-0.00147256 -0.000570597 0.0073814)
(-0.00152695 -0.000630125 0.00763347)
(-0.00157461 -0.00068461 0.00781835)
(-0.0016051 -0.000733357 0.00798063)
(-0.0016273 -0.000775428 0.00809511)
(-0.00163272 -0.000812088 0.00817551)
(-0.00163054 -0.000838737 0.00822392)
(-0.00161261 -0.000856886 0.00822296)
(-0.00158595 -0.000862267 0.00820845)
(-0.00154578 -0.000856081 0.00813503)
(-0.00149681 -0.000836244 0.00806394)
(-0.00143733 -0.000805395 0.00792152)
(-0.00137042 -0.000758506 0.00779162)
(-0.00129875 -0.000699631 0.00757651)
(-0.00122439 -0.000624824 0.00738222)
(-0.00115139 -0.000540206 0.00708628)
(-0.00107854 -0.000445126 0.00682839)
(-0.0010149 -0.000347062 0.00646751)
(-0.000953049 -0.000243889 0.00616013)
(-0.000901335 -0.000145282 0.00575604)
(-0.000847233 -5.11256e-05 0.00542263)
(-0.00080521 3.20822e-05 0.00499959)
(-0.000753442 0.00010016 0.00466309)
(-0.000707825 0.000144534 0.00424358)
(-0.000647282 0.000175524 0.00391457)
(-0.000583303 0.000183943 0.00350177)
(-0.000496828 0.000173804 0.00316807)
(-0.000414308 0.000138942 0.00277996)
(-0.000334533 0.000107101 0.00239036)
(-0.000248752 5.94574e-05 0.00198159)
(-0.00015247 1.92288e-05 0.00153735)
(-5.74875e-05 -6.24614e-05 0.00114351)
(-1.69519e-05 -5.18132e-05 0.000828194)
(-4.14712e-05 -5.2588e-05 0.000871625)
(-0.000107928 -3.74179e-05 0.0012498)
(-2.08985e-05 2.22168e-05 0.000178519)
(-1.76405e-05 1.85428e-05 0.000171993)
(-1.50033e-05 1.56044e-05 0.000158211)
(-1.0147e-05 6.59897e-06 0.000153119)
(-1.17031e-05 1.24675e-05 0.000197511)
(-1.51154e-05 2.59053e-05 0.000260252)
(-1.52017e-05 1.90056e-05 0.000254821)
(-1.40533e-05 1.68982e-05 0.000257289)
(-1.02969e-05 1.4292e-05 0.000247978)
(-1.20721e-05 1.59585e-05 0.000250233)
(-1.32915e-05 1.76636e-05 0.000246639)
(-2.0191e-05 1.96429e-05 0.000265015)
(-1.87569e-06 1.22031e-05 0.000152896)
(-1.23697e-05 1.58113e-05 0.000156939)
(-1.39512e-05 1.86271e-05 0.000171869)
(-1.90749e-05 2.02553e-05 0.000177936)
(-1.6111e-05 1.94539e-05 0.000244246)
(-1.40559e-05 1.85692e-05 0.000238589)
(-6.71303e-05 3.56528e-05 0.00122093)
(-7.29663e-05 4.23026e-05 0.0012236)
(-8.53696e-05 6.03331e-05 0.00122865)
(-8.75595e-05 5.86982e-05 0.00124593)
(-0.00140361 -0.0016791 0.0101415)
(-0.00152645 -0.00183768 0.010444)
(-0.00165833 -0.00196811 0.010789)
(-0.00179062 -0.00208208 0.0110118)
(-0.00192634 -0.00216916 0.0112559)
(-0.00205462 -0.00222982 0.0114041)
(-0.00217587 -0.00225992 0.0115682)
(-0.00227904 -0.00226863 0.0116491)
(-0.0023741 -0.00225435 0.0117332)
(-0.00244938 -0.00221543 0.0117617)
(-0.00251352 -0.00215587 0.01178)
(-0.00255225 -0.00207726 0.0117444)
(-0.00257967 -0.00198526 0.0116799)
(-0.00258054 -0.00187671 0.0115797)
(-0.00257192 -0.00176084 0.0114277)
(-0.0025348 -0.00162964 0.0112505)
(-0.00248733 -0.00149517 0.0110095)
(-0.00241193 -0.00135257 0.0107681)
(-0.0023312 -0.00121407 0.0104507)
(-0.00222672 -0.00106711 0.0101545)
(-0.00211764 -0.000922816 0.00977778)
(-0.00198623 -0.000782293 0.00943054)
(-0.00185644 -0.000651336 0.00898683)
(-0.0017111 -0.000531589 0.00858205)
(-0.00157224 -0.000424152 0.00805837)
(-0.00142584 -0.000337773 0.00758451)
(-0.00128831 -0.000271342 0.00698285)
(-0.00115866 -0.000225971 0.00645861)
(-0.00102268 -0.000204312 0.00584065)
(-0.000880278 -0.000179652 0.00519962)
(-0.000778159 -0.000190887 0.00450251)
(-0.000685728 -0.000184125 0.00374087)
(-0.000583878 -0.000204658 0.00287937)
(-0.000490057 -0.00022839 0.00205709)
(-0.000327065 -0.000178015 0.00136142)
(-0.000339629 -0.000159372 0.00132477)
(-0.000255059 -0.000116235 0.00123436)
(-0.000261622 -0.000102436 0.00125908)
(-0.000223088 -8.92078e-05 0.00094546)
(-0.000288435 -9.11217e-05 0.00132997)
(-0.000302581 -0.000161065 0.00107625)
(-0.000260082 -0.000129554 0.00129827)
(-0.000209471 -0.000111356 0.000927472)
(-0.000387125 -0.000167679 0.00169926)
(-0.000535873 -0.000165129 0.00262739)
(-0.00041837 -0.00017604 0.00178995)
(-0.000278265 -0.000134736 0.00134582)
(-0.000297432 -8.92485e-05 0.0013596)
(-0.000317782 -0.00016419 0.00110616)
(-0.000223443 -0.000116052 0.000959185)
(-0.000229371 -9.04264e-05 0.000964633)
(-0.000270504 -0.000102535 0.00128839)
(-0.000337429 -0.000177907 0.00139361)
(-0.000496747 -0.000221947 0.00209145)
(-0.000609322 -0.000202608 0.00296169)
(-0.000727218 -0.000196867 0.00389687)
(-0.000827607 -0.000174066 0.00478679)
(-0.000941681 -0.000191551 0.00549687)
(-0.00105485 -0.000186884 0.00625962)
(-0.00120631 -0.000226709 0.00685944)
(-0.00134499 -0.000266402 0.00751225)
(-0.00150306 -0.000339498 0.00802695)
(-0.0016474 -0.000429334 0.0085973)
(-0.00180787 -0.000544278 0.00904313)
(-0.0019481 -0.000672303 0.00952775)
(-0.00210132 -0.000817735 0.00990941)
(-0.00222954 -0.00096539 0.0103244)
(-0.00236428 -0.00112748 0.0106574)
(-0.00246876 -0.0012864 0.0110173)
(-0.00257295 -0.00145199 0.0113125)
(-0.00264743 -0.00160131 0.0116354)
(-0.0027239 -0.0017607 0.011887)
(-0.0027654 -0.0019087 0.0121368)
(-0.00280216 -0.0020572 0.0123253)
(-0.00280262 -0.00218467 0.0124848)
(-0.00279948 -0.00230811 0.0125914)
(-0.00276133 -0.0024123 0.0126575)
(-0.00271691 -0.00250431 0.0126955)
(-0.00263833 -0.00257418 0.0126742)
(-0.00255343 -0.00262175 0.0126441)
(-0.00244131 -0.00264228 0.0125572)
(-0.00232698 -0.00263777 0.0124734)
(-0.00218659 -0.00261129 0.0123009)
(-0.00204386 -0.00254922 0.012146)
(-0.00188756 -0.00245958 0.011893)
(-0.00174097 -0.00233979 0.0116584)
(-0.00180965 -0.00273213 0.0123578)
(-0.00197685 -0.0028549 0.0126019)
(-0.00214881 -0.00294863 0.0128632)
(-0.00231043 -0.00301093 0.0130247)
(-0.00246355 -0.0030357 0.0132035)
(-0.00259383 -0.00303613 0.0132923)
(-0.00271595 -0.00301057 0.0133791)
(-0.00281469 -0.00295538 0.0134137)
(-0.00290056 -0.00287637 0.0134319)
(-0.00295611 -0.00277295 0.0133955)
(-0.00299914 -0.00265644 0.0133196)
(-0.00301155 -0.00252088 0.0132114)
(-0.00301445 -0.00238107 0.0130348)
(-0.00298623 -0.00221885 0.0128419)
(-0.0029473 -0.00205517 0.012574)
(-0.00287886 -0.00188292 0.0123188)
(-0.00280553 -0.00171915 0.0119801)
(-0.00270795 -0.00154003 0.0116885)
(-0.00260245 -0.00136539 0.0113259)
(-0.00247201 -0.0011887 0.011004)
(-0.00234016 -0.00102359 0.0105976)
(-0.00218826 -0.000860215 0.0102359)
(-0.00204015 -0.000708141 0.00977165)
(-0.00187505 -0.00056924 0.00935144)
(-0.00171915 -0.000446647 0.00880422)
(-0.0015521 -0.000342702 0.00830834)
(-0.00139877 -0.000258356 0.00766016)
(-0.00124448 -0.000197503 0.00708447)
(-0.0011163 -0.000162713 0.00632896)
(-0.00100479 -0.000151345 0.00565856)
(-0.000881243 -0.000168121 0.00484864)
(-0.000750919 -0.000168653 0.0039577)
(-0.000596518 -0.000179559 0.00295639)
(-0.000424027 -0.000167803 0.00197962)
(-0.000313838 -0.000163526 0.00135754)
(-0.000346236 -0.000157838 0.00138067)
(-0.000256242 -0.000114457 0.00126382)
(-0.000259702 -9.67405e-05 0.00125572)
(-0.000225045 -8.6098e-05 0.000925253)
(-0.000296222 -7.99519e-05 0.00129849)
(-0.000319022 -0.000152003 0.00108353)
(-0.000274884 -0.000129407 0.00133719)
(-0.000219175 -0.000110675 0.000953911)
(-0.000427591 -0.000170438 0.00181699)
(-0.00056618 -0.000139096 0.00269452)
(-0.000404038 -0.000136774 0.00169452)
(-0.00044877 -0.000117676 0.0017212)
(-0.000278027 -8.54655e-05 0.00120345)
(-0.000100091 -4.17982e-05 0.000375765)
(-9.76436e-05 -1.06639e-05 0.000375278)
(-0.000115712 -2.14809e-05 0.00039397)
(-0.000100398 -4.36134e-06 0.000342284)
(-0.000130196 -1.44557e-05 0.000407503)
(-0.000303073 -5.37551e-05 0.00116302)
(-0.000467349 -8.09957e-05 0.00193091)
(-0.000430018 -0.000129959 0.0018302)
(-0.000277561 -9.28613e-05 0.00122345)
(-0.000296408 -6.72861e-05 0.00115797)
(-0.00037126 -7.70578e-05 0.00132589)
(-0.000222832 -3.91612e-05 0.000828224)
(-7.62602e-05 1.72314e-06 0.0002666)
(-9.81775e-05 -8.50816e-06 0.000323193)
(-0.000111182 -1.71623e-05 0.000382121)
(-9.7722e-05 -9.72034e-06 0.000322828)
(-0.000120845 -5.51138e-06 0.00037689)
(-9.25137e-05 -9.1235e-06 0.000313392)
(-6.21133e-05 -9.62417e-06 0.000257792)
(-6.93511e-05 1.17186e-06 0.000246594)
(-9.08367e-05 -6.73398e-06 0.000299094)
(-0.000102443 -1.75418e-05 0.000355488)
(-8.5012e-05 -1.10556e-05 0.000286897)
(-0.000104931 -8.145e-06 0.000337096)
(-8.44513e-05 -7.7408e-06 0.000278898)
(-5.36577e-05 -7.69247e-06 0.000231844)
(-5.84489e-05 -1.57117e-07 0.000225068)
(-7.72167e-05 -4.70093e-06 0.000253455)
(-9.13162e-05 -7.65787e-06 0.000302022)
(-0.000109706 -1.20131e-05 0.000367557)
(-9.73966e-05 -8.23361e-06 0.000305332)
(-0.000109912 -8.6473e-06 0.000347634)
(-8.66268e-05 -8.35932e-06 0.000280421)
(-5.99293e-05 -4.2156e-06 0.000236513)
(-6.2242e-05 4.47421e-06 0.000217688)
(-7.88938e-05 -4.88616e-06 0.000249615)
(-9.38238e-05 -6.11241e-06 0.000299536)
(-0.000114864 -1.16996e-05 0.000365333)
(-0.000100046 -1.08225e-05 0.000305025)
(-0.000114343 -7.06109e-06 0.000334225)
(-8.74936e-05 -5.47361e-06 0.000273955)
(-6.14635e-05 -3.46651e-06 0.000234139)
(-7.99332e-05 -1.03354e-05 0.00027447)
(-9.34956e-05 -1.28473e-05 0.000309726)
(-9.1743e-05 -1.69563e-05 0.000339026)
(-7.49091e-05 -1.30915e-05 0.000267302)
(-6.34101e-05 -2.19829e-06 0.000244737)
(-0.000179556 -4.88686e-05 0.000783288)
(-0.000231499 -5.89821e-05 0.000863885)
(-0.000330976 -9.5983e-05 0.00129677)
(-0.000272854 -9.33891e-05 0.00109739)
(-0.000232673 -9.91476e-05 0.00109861)
(-0.000265417 -0.000187098 0.000997792)
(-0.000232022 -0.000151974 0.00115813)
(-0.000253197 -0.000107104 0.00127513)
(-0.00019557 -0.000105838 0.000904398)
(-0.000224141 -0.000107036 0.00119257)
(-0.000272077 -0.000184334 0.00128216)
(-0.000415427 -0.0002574 0.00200634)
(-0.000509286 -0.000214694 0.00266211)
(-0.000608266 -0.000228126 0.00337869)
(-0.000700184 -0.000238951 0.00402483)
(-0.000804416 -0.000248134 0.00468967)
(-0.000920627 -0.000283054 0.00523709)
(-0.00102173 -0.000294084 0.00581769)
(-0.00115392 -0.000337678 0.00627616)
(-0.00126388 -0.000375811 0.00675798)
(-0.00137837 -0.000437793 0.00714847)
(-0.00147446 -0.000505896 0.00756089)
(-0.00157436 -0.000584935 0.00788774)
(-0.00164972 -0.000665758 0.00821862)
(-0.0017279 -0.000751498 0.00847448)
(-0.00177745 -0.000831387 0.0087125)
(-0.00182751 -0.000909082 0.00889383)
(-0.00184928 -0.000976932 0.00904263)
(-0.00187024 -0.00103862 0.00915182)
(-0.00186458 -0.0010895 0.00921769)
(-0.00185823 -0.00112998 0.00926206)
(-0.00182664 -0.00115773 0.00924937)
(-0.00179357 -0.00117159 0.00923274)
(-0.00173795 -0.00116967 0.00915113)
(-0.00168107 -0.00115131 0.00907839)
(-0.00160492 -0.00111897 0.00892658)
(-0.00152865 -0.00106622 0.00879331)
(-0.00143992 -0.000998538 0.00856827)
(-0.00135709 -0.000909904 0.00836811)
(-0.00126863 -0.00081056 0.00806021)
(-0.00119023 -0.000693503 0.00779223)
(-0.0011147 -0.000572765 0.00741549)
(-0.00105264 -0.000440962 0.0070936)
(-0.000995397 -0.000315674 0.00666709)
(-0.000948496 -0.000188661 0.00631448)
(-0.000904275 -7.66952e-05 0.00586207)
(-0.000863593 2.53133e-05 0.00550107)
(-0.000823143 0.000102945 0.00504784)
(-0.000777778 0.000169606 0.00469005)
(-0.000721897 0.000208469 0.00423626)
(-0.00065107 0.000225981 0.00387386)
(-0.00057073 0.000208802 0.00340757)
(-0.000483362 0.00019212 0.00302626)
(-0.000393733 0.000149731 0.00256293)
(-0.000290957 0.000105433 0.00212662)
(-0.000194346 4.15146e-05 0.00166127)
(-0.000186546 5.39637e-05 0.00145394)
(-6.81561e-05 -3.42223e-05 0.000936631)
(-3.36462e-05 8.31997e-07 0.000700968)
(4.39933e-06 -7.09954e-05 0.000516283)
(-6.75997e-06 -2.30261e-05 0.00049834)
(6.02605e-06 -2.29316e-05 0.000178479)
(5.24014e-06 -1.78485e-05 0.000158714)
(-5.03604e-06 -5.63047e-06 0.000126743)
(-9.97161e-06 2.34206e-06 0.000129453)
(-1.30614e-05 7.03104e-06 0.000123149)
(-1.32988e-05 8.3301e-06 0.000118838)
(-1.48841e-05 8.64063e-06 0.000111261)
(-8.30131e-06 6.64828e-06 9.90563e-05)
(-1.61619e-05 1.14816e-05 0.000128811)
(-2.20301e-05 2.12675e-05 0.000178227)
(-2.19818e-05 1.57035e-05 0.000160521)
(-2.11701e-05 1.49131e-05 0.000156577)
(-1.68908e-05 4.78587e-06 0.000141882)
(-2.18177e-05 1.06852e-05 0.000201459)
(-1.78216e-05 2.258e-05 0.000252647)
(-1.59589e-05 1.628e-05 0.000241481)
(-1.78444e-05 1.35511e-05 0.000247636)
(-1.45994e-05 9.66458e-06 0.000252139)
(-1.29498e-05 5.92113e-06 0.00025705)
(-9.16146e-06 6.61076e-07 0.000265328)
(-6.87918e-06 -3.7672e-06 0.000277912)
(-4.17308e-06 -7.01082e-06 0.000280259)
(-6.38363e-06 -2.11068e-06 0.000268766)
(-9.71481e-06 3.76729e-06 0.000260683)
(-1.14113e-05 7.89223e-06 0.000255778)
(-1.4982e-05 1.30206e-05 0.000249532)
(-1.47283e-05 1.52489e-05 0.000255382)
(-1.30028e-05 1.2892e-05 0.000191586)
(-1.48895e-05 2.33392e-05 0.000263235)
(-1.73213e-05 1.70593e-05 0.000252145)
(-1.38684e-05 1.23826e-05 0.000257283)
(-1.26472e-05 8.65306e-06 0.000261437)
(-1.00188e-05 3.18853e-06 0.000268797)
(-8.17936e-06 1.31396e-06 0.000271824)
(-1.05641e-05 6.97752e-06 0.000264825)
(-1.15986e-05 1.06806e-05 0.000262386)
(-1.21745e-05 1.65287e-05 0.000256685)
(-1.71778e-05 1.69402e-05 0.000270553)
(-1.81163e-05 1.31364e-05 0.000210402)
(-1.47307e-05 2.40387e-05 0.000267731)
(-1.35751e-05 1.94174e-05 0.00025493)
(-1.41264e-05 1.57447e-05 0.000261317)
(-1.37213e-05 1.26542e-05 0.000262233)
(-1.17701e-05 7.44713e-06 0.00026902)
(-9.11784e-06 6.31182e-06 0.000264865)
(-1.13254e-05 1.15697e-05 0.000261614)
(-1.14596e-05 1.46723e-05 0.000258281)
(-1.60394e-05 1.68916e-05 0.000262943)
(-5.3127e-05 3.58822e-05 0.000771808)
(-5.75557e-05 3.99172e-05 0.000769689)
(-7.08391e-05 5.97524e-05 0.000832835)
(-8.25834e-05 5.81297e-05 0.000881359)
(-9.70892e-05 7.82638e-05 0.000914439)
(-9.88437e-05 6.60098e-05 0.00094578)
(-0.00012127 8.11546e-05 0.0010128)
(-1.97647e-05 1.37228e-05 0.000123464)
(-1.82462e-05 1.1879e-05 0.000113977)
(-1.49027e-05 7.94092e-06 0.000111437)
(-1.56797e-05 1.61584e-05 0.000138058)
(-1.85828e-05 2.45995e-05 0.000190313)
(-1.94362e-05 2.16719e-05 0.000173568)
(-1.77639e-05 1.6955e-05 0.000166007)
(-1.41736e-05 6.91918e-06 0.000152623)
(-6.86078e-06 1.00078e-05 0.000148266)
(-1.35726e-05 6.09818e-06 0.000149984)
(-1.77432e-05 1.314e-05 0.000151599)
(-8.86773e-06 9.66852e-06 0.000149235)
(-1.83606e-05 1.52108e-05 0.000161176)
(-1.84297e-05 1.69301e-05 0.000165352)
(-2.40361e-05 1.68591e-05 0.000183444)
(-2.21001e-05 1.1745e-05 0.000146183)
(-2.05458e-05 2.30935e-05 0.000185355)
(-1.9228e-05 1.87958e-05 0.000169851)
(-2.04686e-05 1.83197e-05 0.000166323)
(-1.76187e-05 1.95295e-05 0.000171709)
(-1.63519e-05 1.43564e-05 0.000162771)
(-5.44561e-05 3.45147e-05 0.000495673)
(-5.99242e-05 4.38061e-05 0.000526897)
(-6.33052e-05 4.43762e-05 0.000534424)
(-1.83209e-05 1.95931e-05 0.000182952)
(-7.09687e-05 4.88631e-05 0.000555252)
(-8.03384e-05 4.95753e-05 0.000611469)
(-9.01906e-05 5.06643e-05 0.00066143)
(-8.64195e-05 4.31437e-05 0.000692114)
(-8.92111e-05 4.48173e-05 0.000734284)
(-8.41508e-05 3.39941e-05 0.000787058)
(-8.65263e-05 3.4333e-05 0.000846957)
(-9.05423e-05 1.97995e-05 0.000918805)
(-0.000102798 -9.1694e-06 0.00104451)
(-5.25995e-05 2.48169e-05 0.000798796)
(-2.34958e-06 -5.39682e-05 0.00060376)
(-1.89913e-05 -3.884e-06 0.000575244)
(1.39457e-06 -1.48384e-05 0.000213652)
(3.84785e-06 -1.45156e-05 0.000181277)
(-1.73662e-06 -5.46739e-07 0.000141951)
(-9.5609e-06 6.85831e-06 0.000143838)
(-1.23668e-05 1.11347e-05 0.000132835)
(-1.38556e-05 1.14309e-05 0.0001265)
(-1.66093e-05 1.2239e-05 0.000121496)
(-1.00456e-05 9.2995e-06 0.000111629)
(-1.55449e-05 3.76449e-06 0.000104312)
(-1.78292e-05 1.08203e-05 0.00011633)
(-1.61443e-05 1.08253e-05 0.000122705)
(-1.56174e-05 1.03336e-05 0.000128722)
(-1.29521e-05 6.26392e-06 0.000135897)
(-7.15385e-06 -3.38591e-06 0.000131643)
(3.15418e-07 -1.68875e-05 0.000168599)
(2.26887e-07 -2.31868e-05 0.000199096)
(-2.58379e-05 -4.01808e-05 0.000545813)
(-6.48624e-05 -3.34851e-05 0.000763824)
(-4.85237e-05 -2.74929e-05 0.000755997)
(-4.95843e-05 -1.05519e-06 0.000791766)
(-4.70393e-05 5.16726e-06 0.000609356)
(-7.6703e-05 -5.5317e-07 0.000837193)
(-3.47979e-05 -1.26633e-05 0.000534766)
(2.27684e-06 -1.60611e-05 0.000138693)
(-5.08258e-06 -6.20386e-06 0.000115725)
(-1.05473e-05 9.21701e-07 0.000120984)
(-1.36729e-05 6.6017e-06 0.000116019)
(-1.46619e-05 7.36279e-06 0.000112644)
(-1.53158e-05 6.87266e-06 0.000104191)
(-1.31961e-05 3.10539e-06 0.000100319)
(-1.78939e-05 1.50967e-05 0.00016685)
(-2.01054e-05 1.3232e-05 0.000152471)
(-2.06432e-05 1.18238e-05 0.00014737)
(-1.98453e-05 9.99223e-06 0.000138963)
(-1.54875e-05 3.21094e-06 0.000135337)
(-1.68479e-05 1.10087e-05 0.000178171)
(-2.04042e-05 2.12903e-05 0.000244119)
(-2.08831e-05 1.3737e-05 0.0002333)
(-1.8864e-05 1.18595e-05 0.000238624)
(-1.53165e-05 6.93933e-06 0.00024164)
(-1.33836e-05 3.62105e-06 0.000247635)
(-9.32564e-06 -9.2309e-07 0.000256654)
(-6.59701e-06 -5.19179e-06 0.000269565)
(-3.53504e-06 -8.83276e-06 0.00027457)
(-6.34059e-06 -4.29958e-06 0.000262001)
(-1.02274e-05 1.10035e-06 0.000253249)
(-1.22635e-05 4.53656e-06 0.000247724)
(-1.53108e-05 9.50667e-06 0.000243211)
(-1.4891e-05 1.38221e-05 0.000237499)
(-2.15657e-05 1.44192e-05 0.000249752)
(-6.81981e-05 2.83147e-05 0.000706486)
(-8.81835e-05 4.21514e-05 0.00073023)
(-9.65e-05 4.0026e-05 0.000804798)
(-9.81755e-05 4.41668e-05 0.000820909)
(-0.000109545 4.79372e-05 0.000853987)
(-0.000105551 3.79466e-05 0.000906928)
(-0.000130924 4.4523e-05 0.000976057)
(-0.000117586 3.3648e-05 0.00101658)
(-0.000126473 3.37285e-05 0.00106142)
(-0.000111417 1.51622e-05 0.00110828)
(-0.000125122 1.50587e-05 0.00115884)