/*--------------------------------*- C++ -*----------------------------------*\
| =========                 |                                                 |
| \\      /  F ield         | OpenFOAM: The Open Source CFD Toolbox           |
|  \\    /   O peration     | Version:  5.0                                   |
|   \\  /    A nd           | Web:      www.OpenFOAM.org                      |
|    \\/     M anipulation  |                                                 |
\*---------------------------------------------------------------------------*/
FoamFile
{
    version     2.0;
    format      ascii;
    class       volVectorField;
    location    "60";
    object      wallShearStressRest;
}
// * * * * * * * * * * * * * * * * * * * * * * * * * * * * * * * * * * * * * //

dimensions      [1 -1 -2 0 0 0 0];

internalField   uniform (0 0 0);

boundaryField
{
    Wall_Aorta
    {
        type            calculated;
        value           nonuniform List<vector> 
7931
(
(-6.22151e-05 -1.38032e-05 0.00462951)
(0.00153248 -0.00619681 0.0117667)
(0.00166721 -0.00573065 0.0126306)
(0.000478431 -0.00512848 0.0103143)
(0.00266712 -0.00528741 0.01052)
(-0.000485819 -0.00569823 0.0110608)
(0.00214507 -0.00650314 0.0120962)
(0.00237171 -0.00596515 0.0113027)
(0.00175252 -0.00646959 0.0124984)
(0.00126904 -0.00705572 0.0137496)
(0.00199517 -0.00687576 0.0132383)
(0.00201282 -0.00630648 0.0132153)
(0.000947748 -0.007261 0.0142628)
(0.000452868 -0.00727101 0.0148356)
(0.00168488 -0.00717188 0.0140321)
(0.00135424 -0.00720533 0.0149336)
(-0.000149508 -0.00687253 0.0152442)
(-0.00103224 -0.00652153 0.015229)
(0.000906992 -0.00705566 0.0159528)
(-0.000289388 -0.00697716 0.0168716)
(0.000196054 -0.00713837 0.0170441)
(-0.000629776 -0.00628848 0.0144637)
(-0.000764143 -0.00740697 0.0166031)
(-0.00144822 -0.00467888 0.0119275)
(-0.00119117 -0.00307302 0.0109803)
(-0.00162249 -0.00636119 0.0152854)
(-6.47163e-05 -0.00787993 0.0179137)
(-0.000896999 -0.00726222 0.0165457)
(-3.12094e-05 -0.00393316 0.0097574)
(-0.00206567 -0.00597454 0.0130727)
(-0.00187501 -0.00381818 0.0103063)
(-5.62068e-05 -0.00335226 0.00522825)
(-0.00015051 -0.00251918 0.00470976)
(0.000376925 -0.00315701 0.00467549)
(-9.91896e-05 -0.00319714 0.00527028)
(-0.000155459 -0.00266268 0.00517828)
(0.00052993 -0.0031269 0.00489301)
(0.00024146 -0.00305403 0.00532018)
(0.000184444 -0.00317619 0.0053158)
(0.000225774 -0.00319647 0.005545)
(-0.000121713 -0.00348959 0.00563349)
(-0.000318933 -0.0028464 0.00534769)
(0.000301573 -0.00360123 0.00525544)
(-9.73143e-06 -0.00323269 0.0053397)
(-0.00027546 -0.00345914 0.0060076)
(-0.000405422 -0.00282226 0.00605448)
(0.000289665 -0.00346493 0.00531936)
(0.000235332 -0.00324941 0.00555619)
(-0.000160492 -0.00321543 0.00589918)
(-3.51834e-05 -0.00312674 0.0053538)
(3.73072e-05 -0.00308903 0.00551603)
(3.06666e-05 -0.00331773 0.00526666)
(-0.000177067 -0.00333904 0.00520419)
(-0.000329434 -0.0025326 0.0047066)
(0.000242609 -0.00318211 0.00490412)
(0.000222579 -0.00329947 0.00555159)
(-0.000106687 -0.00307774 0.00540267)
(0.000258151 -0.00314368 0.00528262)
(-5.11154e-05 -0.0028579 0.0052361)
(-0.000171104 -0.00326003 0.00534737)
(-0.000217587 -0.00264553 0.00513465)
(0.00032702 -0.00307898 0.00456748)
(9.0921e-05 -0.00320349 0.00532516)
(0.000106277 -0.00321217 0.00536807)
(0.000136215 -0.00328895 0.00559087)
(0.000166994 -0.00316827 0.00543808)
(0.00018494 -0.00341291 0.00554207)
(-6.79572e-08 -0.00319311 0.00531868)
(7.82974e-06 -0.00328398 0.00551221)
(-1.2938e-05 -0.00333605 0.00564819)
(2.20631e-06 -0.00331877 0.00573018)
(5.68259e-05 -0.00317218 0.00564566)
(0.000131194 -0.00329105 0.00602347)
(0.000127011 -0.00340631 0.00567367)
(-6.4062e-05 -0.00310343 0.00568159)
(-0.000231261 -0.00248089 0.00536332)
(0.000276522 -0.00309597 0.00527842)
(1.53672e-05 -0.00312207 0.00515604)
(-9.24923e-06 -0.00338532 0.00558725)
(-0.000209273 -0.00345131 0.00543815)
(-0.000356758 -0.00283228 0.00496706)
(0.000171885 -0.00333917 0.00514898)
(-0.000107699 -0.00343286 0.0056412)
(0.000163196 -0.00346844 0.005804)
(-0.000196527 -0.00332327 0.00561837)
(-0.000124575 -0.00363585 0.00601335)
(-4.89889e-05 -0.00327234 0.00561619)
(-0.000409316 -0.00351289 0.00566524)
(-0.000476074 -0.00265508 0.00551315)
(5.36586e-05 -0.00335894 0.00522374)
(-0.000208793 -0.00344403 0.00575235)
(-0.000329656 -0.00264939 0.00521488)
(0.000224641 -0.0033167 0.005077)
(-9.45221e-05 -0.00344823 0.00583404)
(-0.00014218 -0.00356435 0.00587854)
(-0.000218311 -0.00380593 0.00620395)
(-0.00011339 -0.00365878 0.00623558)
(-0.000202358 -0.0039493 0.00662143)
(-9.71617e-05 -0.00351507 0.00579793)
(-0.000165189 -0.00337411 0.00596574)
(-9.19066e-05 -0.0036847 0.0061859)
(-0.000165996 -0.0037195 0.00625118)
(0.000105783 -0.00331377 0.00624166)
(0.000207618 -0.00275838 0.00573717)
(-0.000182727 -0.00263769 0.00580902)
(-0.000191514 -0.00296788 0.00595721)
(-0.000559523 -0.00270732 0.00579738)
(9.39053e-05 -0.00306783 0.00545707)
(-5.68541e-05 -0.00265611 0.00568375)
(-0.00022585 -0.00374986 0.00644015)
(-0.000189639 -0.00377736 0.00652595)
(-0.00019974 -0.00389856 0.00681271)
(-0.000156511 -0.00384029 0.00684301)
(0.000188287 -0.00280993 0.00606184)
(-0.000447966 -0.00305759 0.00613239)
(-0.000162897 -0.00258779 0.00577975)
(0.000180123 -0.00285345 0.00638211)
(-0.000467568 -0.00310187 0.00646932)
(-0.000171646 -0.00261728 0.00596371)
(0.000802601 -0.00307392 0.00631075)
(0.000849643 -0.00312909 0.00649475)
(0.000828757 -0.00310068 0.00641136)
(0.000768546 -0.00308872 0.00658911)
(0.000467161 -0.00305266 0.00575662)
(0.000528192 -0.00315378 0.00570745)
(0.000520855 -0.00314239 0.00565723)
(0.000484206 -0.00327684 0.00603521)
(0.000278387 -0.00305709 0.00557182)
(0.000298264 -0.00321351 0.00563066)
(0.000343521 -0.00324258 0.00558273)
(0.000356322 -0.00336239 0.0060468)
(0.000356814 -0.00333396 0.00607592)
(-7.88864e-05 -0.0031985 0.00553703)
(4.33623e-05 -0.00255543 0.00562269)
(0.000747432 -0.00312871 0.00540835)
(-1.46099e-06 -0.00319261 0.0056897)
(9.5311e-05 -0.00276773 0.00572001)
(0.000740948 -0.00311564 0.00514348)
(0.00037793 -0.00297834 0.00552906)
(0.000533917 -0.00306722 0.00613532)
(0.000367078 -0.00308082 0.00608479)
(-3.86852e-05 -0.00299824 0.00563971)
(0.000333115 -0.00279141 0.00574052)
(0.000976258 -0.00270336 0.00504954)
(-9.66223e-05 -0.00306195 0.00556265)
(0.000897166 -0.00303427 0.00532886)
(-7.31042e-05 -0.00305873 0.00568664)
(0.000470923 -0.00258698 0.00573012)
(0.00117309 -0.00262976 0.00555511)
(-8.73092e-05 -0.00294335 0.00574961)
(0.00114264 -0.00289751 0.00589878)
(0.000645905 -0.00288902 0.00569175)
(0.000672034 -0.00285248 0.00579941)
(0.000435021 -0.0029175 0.00553381)
(0.00039216 -0.00291173 0.00551411)
(0.000394692 -0.00293962 0.00558153)
(0.000409783 -0.00291337 0.00555744)
(0.000469232 -0.00286084 0.00557649)
(0.000513367 -0.00282673 0.00558824)
(0.000505185 -0.00280069 0.00551555)
(0.000544843 -0.00270854 0.00559514)
(0.000955565 -0.00319622 0.00679104)
(0.00104176 -0.00329867 0.00712624)
(0.000871491 -0.00310255 0.00684617)
(0.000940241 -0.0031776 0.0071251)
(0.00117438 -0.00341996 0.00752094)
(0.00129506 -0.00368293 0.00816077)
(0.00115376 -0.00309147 0.00752186)
(0.00136005 -0.00329039 0.00739667)
(0.00170643 -0.00489829 0.00969186)
(0.00199666 -0.00521517 0.0105346)
(0.00175132 -0.00429829 0.00907405)
(0.00181943 -0.00483217 0.0100627)
(0.00163885 -0.0066344 0.0124276)
(0.0018629 -0.00637097 0.0128213)
(-0.000581982 -0.00548994 0.0112093)
(0.00196657 -0.00626672 0.0114696)
(0.00221146 -0.00636814 0.0126826)
(0.00094204 -0.00535129 0.0106914)
(0.00255312 -0.00558639 0.0111034)
(0.00149268 -0.00396226 0.00864558)
(0.00154463 -0.00444116 0.00921838)
(0.00145669 -0.00377289 0.00823591)
(0.00156182 -0.00395009 0.0087098)
(0.00176259 -0.00473494 0.00999878)
(-0.000685467 -0.00495789 0.0106332)
(0.00175526 -0.00573098 0.0107829)
(0.00179057 -0.00589269 0.0122087)
(0.00163004 -0.00440817 0.00945578)
(0.000777747 -0.00472947 0.00989088)
(0.00228882 -0.00500932 0.0101737)
(-6.02117e-05 -0.00292953 0.00590507)
(0.00129557 -0.00285982 0.00609801)
(-3.18514e-05 -0.00293102 0.00612612)
(0.00133265 -0.00277519 0.00637803)
(0.000768071 -0.00275352 0.00596301)
(0.000771998 -0.00282404 0.0061282)
(-0.000818782 -0.00285671 0.00619518)
(0.00100581 -0.00306478 0.00692278)
(0.00129267 -0.00309703 0.0068234)
(0.000843671 -0.00335429 0.00765481)
(0.000873281 -0.0027571 0.00636802)
(-0.000869407 -0.00247342 0.00644126)
(0.0010356 -0.00308564 0.00690748)
(0.00116192 -0.00319993 0.00673647)
(0.000595282 -0.00264502 0.00564488)
(0.000628785 -0.0024826 0.00579594)
(0.000653837 -0.00249043 0.00560999)
(0.000615233 -0.00234744 0.00569628)
(0.000658131 -0.0025491 0.00607583)
(0.000740209 -0.00251319 0.00627314)
(0.000725708 -0.00216775 0.00575471)
(0.000621178 -0.00219786 0.00614691)
(0.00121538 -0.00307464 0.0074472)
(0.00124088 -0.00366685 0.00831195)
(0.000979094 -0.00338864 0.00760404)
(0.00127116 -0.00308391 0.00775871)
(0.00134837 -0.00399484 0.00867635)
(0.00142916 -0.00419508 0.00921985)
(0.00133287 -0.00357076 0.00819479)
(0.00131431 -0.00386775 0.00875463)
(-0.000723453 -0.00235971 0.00639789)
(0.00094006 -0.00270675 0.00650181)
(0.00106687 -0.00302237 0.00709138)
(0.000826138 -0.00313933 0.00723463)
(0.000351481 -0.00231725 0.00640795)
(0.00109136 -0.00216288 0.00627121)
(0.000723259 -0.00281394 0.00708364)
(0.00100696 -0.00310754 0.00776625)
(0.00101082 -0.00340328 0.00813303)
(0.000962944 -0.00287122 0.00743101)
(0.000972772 -0.00317912 0.00781392)
(0.000224259 -0.00338619 0.00604795)
(-0.000117699 -0.00322267 0.00557713)
(-0.000155871 -0.00261169 0.00563433)
(0.000552164 -0.00320812 0.00545196)
(3.95529e-05 -0.00318644 0.00560011)
(-8.42178e-05 -0.00273691 0.0053821)
(0.000541532 -0.00322793 0.00523011)
(0.000220051 -0.00296225 0.00549205)
(0.000285428 -0.00293276 0.00548588)
(0.000246629 -0.00291687 0.00551357)
(0.000266687 -0.00290453 0.00552332)
(0.000256119 -0.00283879 0.00546274)
(0.000357429 -0.00290202 0.00564265)
(-1.93578e-05 -0.00291862 0.00577633)
(0.000120858 -0.00284597 0.0055103)
(0.00014592 -0.0028289 0.00560268)
(0.000160046 -0.00277771 0.00552345)
(0.000172696 -0.00275227 0.00539908)
(9.93393e-05 -0.00261078 0.00531066)
(0.000211691 -0.00261084 0.00539199)
(0.00018129 -0.00250452 0.00527989)
(0.000285894 -0.00281864 0.00546018)
(0.000218364 -0.00272735 0.00542133)
(0.000318714 -0.00271055 0.00541398)
(0.000286166 -0.00264391 0.00538035)
(0.000282388 -0.00259091 0.00539224)
(0.000249371 -0.00253945 0.00547751)
(0.000391293 -0.00246139 0.00541657)
(0.000328847 -0.00239706 0.00552051)
(0.000148148 -0.0024739 0.00525252)
(8.40778e-05 -0.00239019 0.0052716)
(0.0002549 -0.00235483 0.00527435)
(0.000187874 -0.00229678 0.00533426)
(0.000128915 -0.00224598 0.0053313)
(3.81885e-05 -0.00218675 0.00542502)
(0.000271789 -0.00217163 0.00539422)
(0.000181019 -0.00208634 0.00547459)
(3.52595e-05 -0.00257513 0.0055769)
(-6.00138e-06 -0.00259044 0.00545929)
(1.89278e-05 -0.00253004 0.00552975)
(-1.50958e-06 -0.00244601 0.00541675)
(6.50692e-05 -0.00242687 0.00525421)
(-1.23173e-05 -0.00229357 0.00519412)
(0.000127732 -0.00234775 0.00527699)
(7.93803e-05 -0.00225588 0.00525932)
(-6.04047e-05 -0.0023829 0.00552518)
(-0.000149917 -0.00225328 0.00531751)
(-3.32664e-05 -0.0023428 0.00561506)
(-5.38986e-05 -0.00219672 0.00538081)
(-8.33624e-05 -0.00218916 0.00523157)
(-0.000161257 -0.00215211 0.00526583)
(2.19646e-05 -0.00213765 0.00532724)
(-4.47885e-05 -0.00214851 0.00540631)
(2.76864e-05 -0.0021734 0.00521781)
(-7.38432e-05 -0.00211494 0.00532035)
(0.000162766 -0.0021479 0.00530127)
(5.5482e-05 -0.00207502 0.00539711)
(-1.9566e-07 -0.00205016 0.00544038)
(-0.000103283 -0.00196629 0.00552299)
(0.00013068 -0.0020037 0.0055238)
(2.80082e-05 -0.00190842 0.00558404)
(-9.23815e-05 -0.00208897 0.00538506)
(-0.00020415 -0.00202288 0.00550373)
(4.85827e-05 -0.00209679 0.00556699)
(-8.34117e-05 -0.00202209 0.00567316)
(-0.000140868 -0.00200813 0.00569926)
(-0.000228782 -0.00194859 0.00581822)
(-4.34868e-05 -0.00200496 0.0058522)
(-0.000150475 -0.00196025 0.00603517)
(0.000397566 -0.00237689 0.00550518)
(0.000402096 -0.00216127 0.00556795)
(0.000487185 -0.00223397 0.00559544)
(0.00044263 -0.00198185 0.00566448)
(0.00052171 -0.00197835 0.00566053)
(0.000484056 -0.00192291 0.00584158)
(0.000533412 -0.00178753 0.00569275)
(0.000437644 -0.00169037 0.00581161)
(0.000155872 -0.00210886 0.00553789)
(0.000124157 -0.00192537 0.00561054)
(0.000289924 -0.00198144 0.00558301)
(0.000213014 -0.00180675 0.0056609)
(0.000270829 -0.00176661 0.00570394)
(0.000236752 -0.00162403 0.0058295)
(0.00029998 -0.00164813 0.0057857)
(0.000183916 -0.00151381 0.00591362)
(0.000188129 -0.00200912 0.00622822)
(0.000817719 -0.00191947 0.00624227)
(0.000423011 -0.00251628 0.00682764)
(0.000136451 -0.00179501 0.00610874)
(0.000743023 -0.00169598 0.00613739)
(0.000389056 -0.00232428 0.00668113)
(0.000623409 -0.00250019 0.0071235)
(0.000641437 -0.00276936 0.00750552)
(0.000580147 -0.00233196 0.00691221)
(0.000586935 -0.00256919 0.00723511)
(-2.3628e-05 -0.00164392 0.00607819)
(0.000498855 -0.00152659 0.00608205)
(0.00012194 -0.0021031 0.00655921)
(-7.96818e-05 -0.00152122 0.00607451)
(0.000423811 -0.00136833 0.006012)
(0.000103581 -0.00196467 0.00647725)
(0.000290698 -0.00211074 0.00680321)
(0.000319256 -0.00234877 0.00708434)
(0.00026057 -0.00204097 0.00675884)
(0.000293663 -0.00221903 0.00713488)
(-3.09545e-05 -0.0019136 0.00567791)
(-7.17582e-05 -0.00181223 0.0057905)
(7.41685e-05 -0.0018459 0.0057216)
(-2.19995e-05 -0.00175086 0.00587135)
(5.51097e-05 -0.00170264 0.00595098)
(-6.91616e-06 -0.00152344 0.00600726)
(3.74943e-05 -0.00169311 0.00609814)
(-4.86949e-05 -0.00147804 0.00618862)
(-0.000156513 -0.00191751 0.00599677)
(-0.000221078 -0.00176894 0.00616596)
(-0.000144436 -0.00194936 0.00628514)
(-0.000244794 -0.00186093 0.00642868)
(-0.000193129 -0.00167912 0.00630522)
(-0.000238642 -0.00148062 0.00628563)
(-0.000223177 -0.00171526 0.00658055)
(-0.000330339 -0.00147555 0.00646307)
(-0.000211548 -0.00129549 0.00641054)
(-0.000235816 -0.00146424 0.00607703)
(0.000194308 -0.00126221 0.00596189)
(-0.00015072 -0.00180701 0.00643189)
(-0.000276555 -0.00143204 0.00614274)
(0.000144794 -0.00122732 0.00596538)
(-0.000183193 -0.00178504 0.00653412)
(-1.51694e-05 -0.00181709 0.00676755)
(2.3941e-05 -0.00197902 0.00711344)
(-6.18017e-05 -0.00176277 0.00688063)
(-0.00015166 -0.00180633 0.00727929)
(0.000142708 -0.00171167 0.00751407)
(0.00020154 -0.00159661 0.00629245)
(0.000181654 -0.000849152 0.00601448)
(-0.000329637 -0.00151269 0.00603759)
(-0.00033181 -0.00173769 0.00671272)
(-0.000301844 -0.00159156 0.00702747)
(-0.000407669 -0.00155372 0.00693333)
(-0.000300677 -0.00168314 0.00718153)
(-0.000539858 -0.00173511 0.00732434)
(-0.000239054 -0.00170018 0.00716644)
(-0.000417213 -0.00156505 0.00722268)
(0.000158956 -0.00163265 0.00743365)
(8.18118e-05 -0.00105668 0.00703509)
(-0.000526098 -0.00159977 0.00766379)
(-0.000129306 -0.00295244 0.00562741)
(-0.000260699 -0.00227078 0.00555562)
(0.000291201 -0.00315417 0.00527802)
(0.000252727 -0.00282699 0.00555357)
(-0.000144704 -0.00279195 0.00586717)
(5.38989e-07 -0.00326885 0.0055204)
(5.95278e-05 -0.00282183 0.00571155)
(0.000215411 -0.00318122 0.00627396)
(0.000271075 -0.00270314 0.00578417)
(-8.21946e-05 -0.00261276 0.00606498)
(8.16582e-05 -0.00299599 0.00596409)
(-0.00023966 -0.0032 0.00656045)
(-0.000465396 -0.0024076 0.00610602)
(0.000251508 -0.00322971 0.00615593)
(0.000238825 -0.00297498 0.00610207)
(0.000309845 -0.00303969 0.0066914)
(-8.69529e-05 -0.00271773 0.0064414)
(-0.000259936 -0.00343419 0.00607692)
(-0.000428363 -0.00271438 0.00566317)
(0.000300242 -0.00349289 0.00576647)
(-4.37021e-05 -0.00327048 0.00580698)
(0.000238711 -0.00316851 0.00637477)
(-0.000150828 -0.00304553 0.00644585)
(8.07108e-06 -0.00315905 0.00599044)
(4.38579e-07 -0.00301743 0.00560349)
(-5.68074e-06 -0.00316251 0.0058654)
(7.82196e-05 -0.00326759 0.0057262)
(-0.000174375 -0.00334066 0.006162)
(-0.000390816 -0.00250356 0.00559276)
(0.000181136 -0.00323131 0.00542268)
(-3.09359e-05 -0.00300707 0.00628878)
(-5.31609e-05 -0.00292152 0.00595226)
(-2.94231e-05 -0.00297173 0.00642078)
(-7.46712e-05 -0.0029629 0.00620676)
(0.000122528 -0.00313092 0.00574507)
(0.000155303 -0.00312119 0.00644397)
(0.000304415 -0.00313583 0.006313)
(-0.000154928 -0.00279061 0.00588552)
(0.000186525 -0.00318611 0.00677005)
(-0.000168589 -0.00290939 0.00646509)
(0.0001497 -0.00296152 0.00693486)
(0.000148749 -0.00286883 0.00688253)
(-0.000216883 -0.00266777 0.00701072)
(-0.00033202 -0.00301222 0.00718911)
(-0.000455152 -0.00229498 0.0066947)
(0.000195908 -0.00298241 0.00655689)
(-7.49721e-05 -0.00284443 0.00691251)
(0.000242625 -0.00286921 0.00727061)
(-0.000159615 -0.00272696 0.0069671)
(-0.000115298 -0.0028364 0.00704572)
(0.000141503 -0.00280966 0.0077022)
(-0.000226605 -0.00279642 0.00768182)
(-5.23195e-05 -0.00279962 0.00733443)
(-4.86508e-05 -0.0027375 0.00638027)
(-0.000190437 -0.0029757 0.0062595)
(-1.38266e-06 -0.00261465 0.0065729)
(1.84226e-05 -0.00292333 0.00638718)
(-0.000337672 -0.00306763 0.00657859)
(-0.000578812 -0.00236509 0.00599762)
(3.59693e-05 -0.00302787 0.00633102)
(-0.00010986 -0.0032093 0.00689818)
(0.000302611 -0.00292846 0.00688661)
(-0.000170296 -0.00273043 0.00645104)
(-6.75952e-05 -0.00322201 0.00728457)
(-5.88824e-05 -0.00262972 0.00676304)
(-0.00011849 -0.00276012 0.00712108)
(3.92553e-05 -0.00282092 0.00712601)
(-0.000396662 -0.0027579 0.00744034)
(-0.000467491 -0.00194965 0.00688737)
(1.2949e-05 -0.00270349 0.00669114)
(6.75907e-05 -0.00276219 0.0072751)
(-0.000326177 -0.00257804 0.00710026)
(-0.000144867 -0.00310907 0.00752086)
(-7.36273e-05 -0.00268061 0.00756654)
(-7.77621e-05 -0.00304423 0.00801546)
(0.000173862 -0.00323392 0.00607839)
(-0.000219955 -0.00299572 0.00592672)
(-0.000122568 -0.00349097 0.0062625)
(-5.10717e-05 -0.00330084 0.00629068)
(-0.00010134 -0.0036314 0.00662826)
(-0.000176225 -0.00377088 0.00657997)
(-0.000321159 -0.00400737 0.00697855)
(-0.000143867 -0.00384835 0.00703586)
(-0.000302364 -0.00410252 0.00742369)
(-9.32505e-05 -0.00334626 0.00660427)
(-0.000178609 -0.00373023 0.00704671)
(-6.40265e-05 -0.00341098 0.00695439)
(-0.00016295 -0.00378995 0.00750312)
(-0.00023386 -0.00397361 0.00745652)
(-0.000406772 -0.00420091 0.00784879)
(-0.000188798 -0.0040843 0.00796422)
(-0.00038065 -0.00429112 0.00833026)
(-0.000316895 -0.00397523 0.00720262)
(-0.000261188 -0.00386047 0.00721694)
(-0.000317264 -0.00402214 0.00760996)
(-0.000280989 -0.00386901 0.00758291)
(6.2417e-05 -0.00274748 0.00662336)
(-0.000599489 -0.00304559 0.00676843)
(-0.000354461 -0.00251571 0.00612857)
(1.65786e-05 -0.00275469 0.00694706)
(-0.000635774 -0.00307842 0.00710683)
(-0.000356086 -0.00250299 0.0063905)
(-0.000438847 -0.00409729 0.00799201)
(-0.00040005 -0.00388124 0.00791034)
(-0.000416406 -0.00417096 0.00843001)
(-0.000437012 -0.00396756 0.00829342)
(-0.00010052 -0.00267006 0.00717976)
(-0.000757515 -0.00303091 0.00736647)
(-0.000584695 -0.00239792 0.00656764)
(-0.00012976 -0.00275821 0.00746785)
(-0.000825634 -0.00316263 0.00768236)
(-0.000571695 -0.00245002 0.00674034)
(-0.000106432 -0.0034525 0.00734824)
(-0.000218223 -0.00383743 0.00791425)
(-4.0687e-05 -0.00350255 0.00777838)
(-0.000149892 -0.00388497 0.00836379)
(-0.000268179 -0.00417915 0.00843497)
(-0.000493307 -0.00439303 0.0087946)
(-0.000191504 -0.00422898 0.00893516)
(-0.00041442 -0.00443533 0.00930986)
(-0.000125285 -0.00340199 0.0081352)
(-0.000232896 -0.00383503 0.00876863)
(-5.81586e-05 -0.00332922 0.00860659)
(-0.000145321 -0.0037785 0.009265)
(-0.000298189 -0.00419718 0.00935757)
(-0.00049468 -0.00441116 0.00975449)
(-0.000196509 -0.00412813 0.00986789)
(-0.00039549 -0.00435123 0.0102841)
(-0.000577717 -0.00429926 0.00888586)
(-0.000606209 -0.00405348 0.00875059)
(-0.000509781 -0.0043254 0.00938058)
(-0.000650177 -0.00421706 0.00905582)
(-0.000266363 -0.00287558 0.00782681)
(-0.00100004 -0.00323622 0.00791592)
(-0.000721972 -0.00257685 0.00728276)
(0.00103801 -0.0028382 0.00805494)
(-0.000755188 -0.00380681 0.00842201)
(-0.000871937 -0.00371671 0.00903319)
(-0.000783054 -0.00280826 0.00769101)
(-0.000609961 -0.00442602 0.00985451)
(-0.000913322 -0.00378051 0.00957023)
(-0.000511611 -0.00431294 0.0104322)
(-0.000700082 -0.00412224 0.0103323)
(-0.000651362 -0.00402826 0.00973297)
(0.00107085 -0.00295176 0.00814171)
(-0.000881723 -0.00331349 0.00895715)
(-0.00113431 -0.00326989 0.00884934)
(-0.000838036 -0.00353336 0.00968831)
(-0.000740951 -0.00311218 0.0101719)
(-0.000130051 -0.00271114 0.00786101)
(-0.000145309 -0.00264958 0.00763575)
(-0.000120588 -0.00269228 0.00827268)
(-0.000105731 -0.00263334 0.00796218)
(-0.000162959 -0.00251182 0.00842249)
(-0.000229423 -0.00235087 0.00817808)
(-0.000127207 -0.00247882 0.00872182)
(-0.000122232 -0.00243006 0.00853057)
(9.21641e-05 -0.0026649 0.00742319)
(0.000147303 -0.00264708 0.00779597)
(0.000245669 -0.00242141 0.00771715)
(-0.000238116 -0.00219256 0.00735609)
(0.000278641 -0.00240692 0.00808117)
(-0.0001838 -0.00218387 0.00773442)
(-9.39362e-05 -0.00256533 0.00793892)
(-0.000132635 -0.00294452 0.00841051)
(-1.23538e-05 -0.00251313 0.00826288)
(-8.1711e-05 -0.00279191 0.0088164)
(-6.18548e-07 -0.00251141 0.00790293)
(0.000147192 -0.00235263 0.0087336)
(0.000179241 -0.00227092 0.00831376)
(-0.000212047 -0.00203882 0.00789604)
(5.09445e-05 -0.00213598 0.00875846)
(-0.000153708 -0.00200351 0.00842096)
(-8.78976e-05 -0.00238771 0.00862301)
(-0.000137613 -0.00263104 0.009155)
(-2.68975e-05 -0.00221052 0.00898678)
(-5.38112e-05 -0.00248756 0.00953273)
(-0.000107865 -0.00226423 0.00896298)
(-0.000192548 -0.00226666 0.00875235)
(4.33326e-05 -0.00229767 0.00936907)
(0.000149971 -0.00217151 0.00912177)
(-2.44241e-05 -0.00210006 0.00953708)
(5.67381e-05 -0.00192356 0.00933508)
(0.000122412 -0.00202314 0.00990027)
(0.000162362 -0.00189401 0.00967562)
(-0.000696086 -0.00204115 0.00872156)
(-0.000657261 -0.00144095 0.00826812)
(-0.000120245 -0.00208351 0.00876221)
(-0.000105049 -0.00199877 0.00892918)
(0.00022809 -0.00178123 0.00917558)
(-0.000153023 -0.00173381 0.008836)
(-6.98959e-05 -0.00187076 0.00933218)
(-8.63876e-05 -0.00204462 0.00929485)
(-0.000132435 -0.00228527 0.00982564)
(-7.26234e-06 -0.00197572 0.00965114)
(-3.84663e-05 -0.00214232 0.0101383)
(0.000176721 -0.00161848 0.00940733)
(-0.000216303 -0.00151332 0.0091139)
(-9.53907e-05 -0.00172632 0.00945925)
(0.000252112 -0.00151415 0.00972029)
(-8.91813e-05 -0.00150867 0.00943578)
(-3.23014e-05 -0.0015809 0.00979681)
(-7.14344e-05 -0.00175728 0.00986148)
(-0.000117071 -0.00193924 0.0103405)
(1.18782e-05 -0.0016209 0.0101634)
(-2.49946e-05 -0.0017717 0.0106185)
(-0.000123373 -0.00321074 0.00898637)
(-0.000216311 -0.00364083 0.00966573)
(-4.30473e-05 -0.00308552 0.00941047)
(-0.000143735 -0.00349406 0.0100708)
(-0.000259805 -0.00397867 0.0102759)
(-0.000468887 -0.00421868 0.0106975)
(-0.000169483 -0.00380278 0.0106637)
(-0.000336282 -0.00403654 0.0110941)
(-0.000105898 -0.00291335 0.00975827)
(-0.000186448 -0.00327396 0.010384)
(-3.12017e-06 -0.00274461 0.0101341)
(-8.82841e-05 -0.00307352 0.0107529)
(-0.000203201 -0.00358074 0.0109624)
(-0.00038023 -0.00380147 0.0113909)
(-8.23739e-05 -0.00336028 0.0113233)
(-0.000231225 -0.00355699 0.011726)
(-0.000581918 -0.00423469 0.0109185)
(-0.000789722 -0.00398638 0.0108041)
(-0.00041549 -0.0040865 0.0113648)
(-0.000617864 -0.00393057 0.0113646)
(-0.000805218 -0.00365545 0.0106267)
(-0.000924376 -0.00332382 0.0103464)
(-0.000631238 -0.00361991 0.0111879)
(-0.000751461 -0.00332732 0.0111201)
(-0.000464384 -0.0038734 0.011689)
(-0.000651114 -0.00377053 0.0117687)
(-0.000298838 -0.00362604 0.0120357)
(-0.000463741 -0.00356371 0.0121491)
(-0.000687041 -0.00353579 0.0117253)
(-0.000803642 -0.00328927 0.0116724)
(-0.0004802 -0.00338552 0.0121468)
(-0.000598117 -0.00318886 0.0121511)
(-8.64445e-05 -0.00253975 0.0104186)
(-0.000157481 -0.0028217 0.0110024)
(2.2887e-05 -0.00236351 0.0107049)
(-4.49858e-05 -0.00261535 0.0112597)
(-0.000153112 -0.00307101 0.0115482)
(-0.000288559 -0.00325536 0.0119284)
(-3.03147e-05 -0.00281434 0.0117668)
(-0.000133331 -0.00297756 0.0121316)
(-6.14115e-05 -0.00212355 0.0109109)
(-0.000115628 -0.0023287 0.0114289)
(3.7859e-05 -0.00191237 0.0111448)
(-8.80996e-06 -0.00209884 0.0116272)
(-9.75019e-05 -0.00251417 0.0118978)
(-0.000206667 -0.00266656 0.0122201)
(1.86895e-05 -0.00225525 0.0120457)
(-7.11692e-05 -0.0023851 0.0123182)
(-0.000328513 -0.00333245 0.0122289)
(-0.000481213 -0.00331517 0.0123637)
(-0.000148938 -0.00306158 0.0124158)
(-0.000291228 -0.00304965 0.0125334)
(-0.000517784 -0.00319737 0.0124315)
(-0.000635145 -0.00303457 0.0124409)
(-0.000319059 -0.00296757 0.012605)
(-0.000410154 -0.00287217 0.0125936)
(-0.000219948 -0.0027534 0.0124829)
(-0.0003226 -0.00275027 0.0125731)
(-6.26375e-05 -0.00246374 0.0125309)
(-0.000157316 -0.00248349 0.0125818)
(-0.000347202 -0.00272235 0.0125926)
(-0.000466757 -0.00264933 0.0125317)
(-0.000174371 -0.00248391 0.012573)
(-0.000296034 -0.00245027 0.012472)
(-0.000192627 -0.0022332 0.00571503)
(-0.000252692 -0.00207899 0.00552217)
(-0.000152127 -0.00226605 0.00601028)
(-0.000187101 -0.00216967 0.0058425)
(-0.00020019 -0.00207251 0.00550774)
(-0.000307079 -0.00211353 0.00563505)
(-0.000110753 -0.00217651 0.00584457)
(-0.000206789 -0.00219377 0.00596187)
(-0.00046174 -0.00223723 0.0062502)
(-0.000515418 -0.00224809 0.0061629)
(-0.000466376 -0.00233967 0.00646675)
(-0.000491968 -0.00244685 0.0065303)
(-0.000400801 -0.00236061 0.00629451)
(-0.000497641 -0.00239031 0.0064692)
(-0.000374651 -0.00261698 0.00679592)
(-0.000465503 -0.0026428 0.00702926)
(-0.000249954 -0.00215153 0.00586345)
(-0.000331423 -0.00211877 0.00601875)
(-0.000170635 -0.00223153 0.00617147)
(-0.000285101 -0.00220096 0.00638769)
(-0.000282872 -0.00212495 0.00623438)
(-0.000385789 -0.00206354 0.00647387)
(-0.000279852 -0.00221372 0.00665506)
(-0.00039842 -0.00217986 0.00687723)
(-0.000454352 -0.00243858 0.00671168)
(-0.000537971 -0.00240001 0.00692604)
(-0.00047053 -0.00269387 0.00734529)
(-0.000558328 -0.00253043 0.00765089)
(-0.000519305 -0.00242419 0.0072194)
(-0.000567695 -0.00223584 0.00747925)
(-0.000589836 -0.00240165 0.00775381)
(-0.000735256 -0.00226881 0.00788649)
(-0.000693907 -0.00240648 0.00686311)
(-0.000788068 -0.00258526 0.00706629)
(-0.000630239 -0.0028212 0.00753354)
(-0.00071985 -0.00273456 0.00767421)
(-0.000708707 -0.00289947 0.00748344)
(-0.000755204 -0.0029122 0.0079002)
(-0.000725355 -0.00297479 0.00808765)
(-0.000851244 -0.00308555 0.00849917)
(0.000301639 -0.00291694 0.0082481)
(-0.00118682 -0.00271547 0.00860411)
(0.000280307 -0.00288945 0.00837701)
(-0.00124305 -0.00282055 0.00874889)
(-0.000560752 -0.003077 0.0100528)
(-0.000628143 -0.00295686 0.0103016)
(0.000256257 -0.00306254 0.00888897)
(-0.0012167 -0.00299199 0.0091998)
(0.000317354 -0.00322045 0.00939131)
(-0.000673907 -0.00243349 0.00971374)
(-0.00133697 -0.00262949 0.00938653)
(-0.000608814 -0.00298757 0.0106713)
(-0.000808655 -0.00302974 0.0109547)
(-0.000758438 -0.00285706 0.00808713)
(-0.000849087 -0.00269339 0.00831231)
(0.000225745 -0.00317243 0.00874288)
(-0.00120764 -0.00308802 0.00953065)
(0.000346239 -0.00279867 0.00886565)
(-0.000478237 -0.00198782 0.00910883)
(-0.00113464 -0.00235109 0.00921689)
(0.000168426 -0.00270493 0.00843729)
(-0.00114267 -0.00261784 0.00867161)
(0.000228399 -0.00233421 0.00846966)
(-0.000572029 -0.00166065 0.00857816)
(-0.00119552 -0.00192753 0.00828846)
(-0.00051583 -0.00245643 0.00970043)
(-0.000822541 -0.0022446 0.00959997)
(-0.000719939 -0.00288408 0.0103192)
(-0.000955651 -0.00268037 0.0101741)
(-0.00088719 -0.00273891 0.0102201)
(-0.000833739 -0.00230173 0.0102152)
(-0.00104472 -0.00238429 0.00946446)
(-0.0010073 -0.00191766 0.00945819)
(-0.000867989 -0.00210848 0.0102692)
(-0.000923738 -0.00191189 0.0099885)
(-0.000372056 -0.00207531 0.00668439)
(-0.000416613 -0.00187156 0.00683721)
(-0.000415207 -0.00207996 0.00710582)
(-0.000543381 -0.00186393 0.00701156)
(-0.000476066 -0.00175014 0.00673656)
(9.82724e-05 -0.00175851 0.00661404)
(-0.000187742 -0.000990564 0.00628843)
(-0.000732292 -0.00163545 0.00659395)
(0.000272278 -0.00193145 0.00696498)
(-0.000115317 -0.000992913 0.00703914)
(-0.0007841 -0.00178213 0.00726352)
(-0.000568304 -0.00168337 0.0077049)
(-0.000660797 -0.00212177 0.00745471)
(0.000149782 -0.00209664 0.00754629)
(-0.000377243 -0.0012635 0.00754239)
(-0.00100523 -0.00189545 0.00743667)
(0.000246484 -0.0023871 0.00793293)
(-0.000264317 -0.00131518 0.00799103)
(-0.00100946 -0.00213845 0.00828712)
(-0.000672551 -0.00203172 0.00857829)
(-0.000750725 -0.00179341 0.00800741)
(-0.000898494 -0.00170399 0.00755167)
(-0.000801141 -0.00179106 0.00794663)
(-0.000822856 -0.00137012 0.00804413)
(-0.000598109 -0.00171385 0.00692416)
(-0.000638255 -0.00140293 0.00738178)
(-0.000644404 -0.00160493 0.00741563)
(-0.00068474 -0.00144082 0.00755653)
(-0.000709474 -0.00162161 0.0080331)
(-0.000677287 -0.00150026 0.00757695)
(-0.000633818 -0.00148403 0.00760954)
(-0.000528195 -0.00136562 0.00759452)
(3.91715e-05 -0.00148804 0.00770901)
(-0.000231204 -0.000747176 0.00727554)
(-0.000747543 -0.00144375 0.00808432)
(-0.000858322 -0.001366 0.00789473)
(-0.000871822 -0.00136547 0.00806784)
(-0.000796146 -0.00131078 0.0080385)
(-0.000907582 -0.00131891 0.00810547)
(-0.000153883 -0.00137198 0.00822935)
(-0.000473349 -0.000732752 0.0078337)
(-0.00104752 -0.00137803 0.0086048)
(-0.000903086 -0.00147414 0.00851084)
(-0.000885222 -0.00138265 0.00817063)
(-0.000826789 -0.00139559 0.00810019)
(-0.00100586 -0.00112111 0.00839717)
(-0.000851217 -0.00210626 0.00900717)
(-0.00101363 -0.00192084 0.00837798)
(-0.000922236 -0.00201985 0.00888376)
(-0.000913531 -0.00165682 0.00894641)
(-0.00094827 -0.00158283 0.00846667)
(-0.000989354 -0.00137277 0.00849331)
(-0.00092296 -0.00148656 0.00893453)
(-0.00103143 -0.00130948 0.00875373)
(-0.00101558 -0.00178557 0.00954894)
(-0.00106858 -0.00152597 0.00937843)
(-0.000953372 -0.00173035 0.00978673)
(-0.0010782 -0.0014761 0.00964382)
(-0.00105665 -0.00135584 0.00996711)
(-0.00114434 -0.00138365 0.00924394)