/*--------------------------------*- C++ -*----------------------------------*\
| =========                 |                                                 |
| \\      /  F ield         | OpenFOAM: The Open Source CFD Toolbox           |
|  \\    /   O peration     | Version:  5.0                                   |
|   \\  /    A nd           | Web:      www.OpenFOAM.org                      |
|    \\/     M anipulation  |                                                 |
\*---------------------------------------------------------------------------*/
FoamFile
{
    version     2.0;
    format      ascii;
    class       volVectorField;
    location    "60";
    object      wallShearStressHyper;
}
// * * * * * * * * * * * * * * * * * * * * * * * * * * * * * * * * * * * * * //

dimensions      [1 -1 -2 0 0 0 0];

internalField   uniform (0 0 0);

boundaryField
{
    Wall_Aorta
    {
        type            calculated;
        value           nonuniform List<vector> 
7931
(
(-0.000764106 0.000499327 0.000460677)
(0.00263216 -0.0149283 0.0159606)
(0.0026031 -0.0148384 0.0176419)
(0.00110577 -0.0115865 0.0139199)
(0.00410088 -0.0122541 0.0143381)
(-0.000819678 -0.0122077 0.0150565)
(0.00326846 -0.0150341 0.0166281)
(0.00327794 -0.0132542 0.0157999)
(0.00328829 -0.0162513 0.018238)
(0.00223336 -0.0172446 0.0210046)
(0.00359951 -0.015521 0.0189919)
(0.00331187 -0.0142343 0.0190406)
(0.00202901 -0.0172345 0.0226126)
(0.000833615 -0.0165084 0.0234083)
(0.00308732 -0.0153419 0.0208403)
(0.00219018 -0.0145041 0.0217667)
(2.56094e-05 -0.0156274 0.0237956)
(-0.00128284 -0.0139704 0.0228767)
(0.00164347 -0.0141988 0.0227084)
(-0.000355252 -0.0130338 0.0231522)
(0.00114013 -0.0134718 0.0233133)
(-0.000774616 -0.0129565 0.0213857)
(-0.000825201 -0.0139178 0.0240737)
(-0.00245837 -0.0105537 0.0169608)
(-0.00167415 -0.00843584 0.0157498)
(-0.00186964 -0.0123687 0.0221661)
(0.00029498 -0.0139513 0.0242899)
(-0.00114361 -0.012651 0.0230562)
(-0.000513059 -0.00950519 0.0144222)
(-0.00306392 -0.010883 0.0190771)
(-0.00316031 -0.0076442 0.0155783)
(-0.000349201 -0.00768032 0.00927221)
(-0.000450058 -0.00699713 0.00863683)
(0.00028945 -0.00740132 0.00881819)
(-0.0003463 -0.00745819 0.00917078)
(-0.000573786 -0.00736431 0.00914518)
(0.000489527 -0.00743929 0.00895139)
(-8.8706e-05 -0.00764609 0.00945954)
(-9.59919e-05 -0.00757468 0.00953646)
(-7.1905e-05 -0.00774534 0.00979513)
(-0.000704374 -0.00652238 0.00888729)
(-0.00070655 -0.00623557 0.00868128)
(1.38908e-05 -0.00657189 0.00888311)
(-0.000538433 -0.00670443 0.00882674)
(-0.00076076 -0.00591863 0.00892188)
(-0.000877615 -0.00579081 0.00901534)
(-7.21459e-05 -0.00595823 0.00882094)
(5.38427e-05 -0.00620555 0.00889375)
(-0.000726155 -0.00662639 0.00929647)
(-0.000489833 -0.00654596 0.00916804)
(-0.000374154 -0.00599281 0.00887236)
(-0.000341011 -0.00648799 0.00893231)
(-0.000647441 -0.0073993 0.00913572)
(-0.000792323 -0.00667799 0.00854524)
(-5.32224e-05 -0.00714942 0.00926155)
(0.000169039 -0.00744624 0.00969526)
(-0.000657254 -0.0075238 0.00958688)
(0.000319449 -0.00750319 0.00951555)
(-0.000496466 -0.00761488 0.00955157)
(-0.000556511 -0.00744358 0.00941067)
(-0.000726508 -0.00726848 0.00921624)
(0.000134801 -0.00715782 0.00882888)
(-0.000317778 -0.00774689 0.00972937)
(-0.000168897 -0.00767713 0.00965025)
(-0.000206814 -0.00774396 0.00996381)
(-0.000133317 -0.00753198 0.00979936)
(-0.000186072 -0.00779602 0.00973756)
(-0.000453474 -0.00757007 0.00953539)
(-0.0004872 -0.00781852 0.00992689)
(-0.000467518 -0.00782674 0.00995026)
(-0.000561387 -0.00779355 0.0100441)
(-0.00041597 -0.0075303 0.0100619)
(-0.000404659 -0.00749038 0.0101053)
(-0.000359629 -0.00787035 0.00984412)
(-0.000521325 -0.00704366 0.00927796)
(-0.000663423 -0.00666929 0.00915021)
(-3.98369e-05 -0.00689146 0.00921212)
(-0.000380357 -0.00672975 0.00904068)
(-0.000334349 -0.00700429 0.00949746)
(-0.000686216 -0.00712359 0.00923418)
(-0.000744579 -0.00678314 0.00878246)
(-0.000175017 -0.00696941 0.00946099)
(-0.000661132 -0.00770984 0.00982251)
(0.000174842 -0.00710563 0.00985807)
(-0.000563425 -0.00750014 0.00972893)
(-0.000634411 -0.00786259 0.0102879)
(-0.000412615 -0.00673878 0.00954502)
(-0.000780787 -0.00684735 0.00955004)
(-0.000859034 -0.00656194 0.00952585)
(-0.000158425 -0.00671523 0.00971327)
(-0.000629555 -0.00662791 0.00964892)
(-0.000607151 -0.00612939 0.00907815)
(-2.29692e-05 -0.00650147 0.00950017)
(-0.000392438 -0.0070893 0.0101473)
(-0.000532547 -0.0072916 0.0100956)
(-0.000809955 -0.00787958 0.0104988)
(-0.000448045 -0.00736675 0.0106227)
(-0.000787175 -0.00798836 0.0109649)
(-0.000668025 -0.00798205 0.0101131)
(-0.000944503 -0.00780917 0.0103453)
(-0.000660697 -0.00804664 0.0105116)
(-0.000962017 -0.00819011 0.0104869)
(-0.000546024 -0.00762082 0.0102812)
(7.9534e-05 -0.00672927 0.00928689)
(-0.000852895 -0.00699123 0.00962058)
(-0.000817783 -0.00675468 0.0095478)
(-0.00127234 -0.00701736 0.00968879)
(-0.000435436 -0.00678603 0.0093959)
(-0.000617593 -0.00680472 0.00938649)
(-0.000944891 -0.00797434 0.0107158)
(-0.00113404 -0.00808279 0.0106958)
(-0.00094583 -0.00807174 0.0110838)
(-0.00114579 -0.00808389 0.0109319)
(-0.000222715 -0.00667215 0.00976334)
(-0.00129149 -0.00733484 0.0100125)
(-0.000732984 -0.00677063 0.00963764)
(-0.000282876 -0.00681022 0.0101136)
(-0.0013587 -0.00738644 0.0103107)
(-0.000784324 -0.0068803 0.00998435)
(0.0010558 -0.00798893 0.00941937)
(0.00114043 -0.00805475 0.00940679)
(0.0010933 -0.00784683 0.00980116)
(0.00105452 -0.0078654 0.00980612)
(0.000355711 -0.00793409 0.00961291)
(0.000421069 -0.008063 0.00953603)
(0.000419911 -0.00784079 0.00964143)
(0.000332488 -0.00789058 0.00983732)
(4.97355e-05 -0.00773487 0.00968169)
(3.12467e-05 -0.00788178 0.00975782)
(0.000136487 -0.00778053 0.00981936)
(7.14905e-05 -0.00782732 0.0100844)
(0.000227618 -0.00790389 0.0100407)
(-0.000215273 -0.0071701 0.00906565)
(-0.000118674 -0.00691603 0.00934421)
(0.000906763 -0.00723089 0.00919333)
(-0.0001419 -0.0070381 0.00930024)
(-8.60477e-05 -0.007312 0.00957754)
(0.000906572 -0.00710059 0.00900593)
(0.000320671 -0.00693946 0.00918311)
(0.000572441 -0.00768664 0.00986408)
(0.000387152 -0.00758677 0.00951194)
(-6.35027e-07 -0.00686362 0.00915151)
(0.000346422 -0.00749908 0.00942962)
(0.00129348 -0.00672054 0.00862282)
(-0.000334408 -0.00698385 0.00895631)
(0.00117857 -0.00715646 0.00887363)
(0.000175868 -0.00703763 0.00903206)
(0.000794627 -0.00723706 0.00906232)
(0.00178824 -0.00674704 0.00885771)
(-9.13867e-05 -0.00700516 0.00909105)
(0.00169404 -0.00722388 0.00915418)
(0.000953385 -0.00672451 0.00924394)
(0.00104184 -0.00672413 0.00938416)
(0.000490994 -0.0068219 0.00913981)
(0.000536869 -0.0067674 0.00908287)
(0.000495771 -0.00690908 0.00928547)
(0.00060092 -0.00691641 0.00933961)
(0.000781617 -0.00666491 0.00917494)
(0.000861641 -0.00669375 0.00929962)
(0.000873261 -0.00675488 0.0094119)
(0.000918607 -0.00672064 0.00967346)
(0.00150195 -0.00806683 0.00965909)
(0.00163402 -0.00817336 0.00993731)
(0.00141244 -0.00777394 0.0100096)
(0.00152506 -0.00783449 0.0102191)
(0.00203964 -0.00820681 0.010426)
(0.00217488 -0.00846292 0.0111858)
(0.00200441 -0.00756467 0.0107208)
(0.00231104 -0.00769662 0.0102563)
(0.00286141 -0.0107036 0.0130883)
(0.00327209 -0.0111312 0.0142417)
(0.00293184 -0.0094388 0.0123328)
(0.00293107 -0.0101111 0.0136834)
(0.00282123 -0.0135791 0.0172665)
(0.00302276 -0.0121313 0.0175167)
(-0.000538109 -0.0114708 0.0155793)
(0.00328608 -0.0123577 0.0160124)
(0.0035839 -0.0131819 0.0178481)
(0.00162334 -0.01065 0.0147805)
(0.0042384 -0.0108653 0.015145)
(0.00266905 -0.00866414 0.0118962)
(0.00263258 -0.00912086 0.0125691)
(0.00261936 -0.00820376 0.0115672)
(0.00267192 -0.00820196 0.0120701)
(0.00312641 -0.00933895 0.0138383)
(-0.000573404 -0.00886335 0.0146323)
(0.00288386 -0.0100611 0.0146484)
(0.00282157 -0.0104109 0.0167325)
(0.00290817 -0.00863399 0.0131918)
(0.00145762 -0.00832947 0.0136815)
(0.00374681 -0.00888359 0.0137169)
(9.2325e-05 -0.00693453 0.00923739)
(0.00206882 -0.00710303 0.00926789)
(0.000189706 -0.00699491 0.00944031)
(0.00212502 -0.00696805 0.00948709)
(0.00131307 -0.00659931 0.00959028)
(0.00135064 -0.00676077 0.00973554)
(-0.00102623 -0.00681106 0.0095033)
(0.00175681 -0.00731556 0.0102067)
(0.00213355 -0.00728261 0.0100363)
(0.00166876 -0.00767331 0.0110333)
(0.00169388 -0.00676776 0.0100432)
(-0.00103814 -0.00619336 0.00996644)
(0.00186525 -0.00743182 0.0102789)
(0.00197117 -0.00704493 0.0101814)
(0.00110158 -0.00652733 0.00937983)
(0.00118691 -0.0063569 0.00953738)
(0.00119653 -0.00652859 0.00969316)
(0.00114395 -0.00636855 0.00977543)
(0.00137391 -0.00655003 0.00987955)
(0.00162115 -0.0065919 0.0100053)
(0.00142146 -0.00620333 0.00971776)
(0.00138326 -0.00639519 0.0100435)
(0.00238811 -0.00700927 0.0105672)
(0.00232148 -0.00771054 0.0117502)
(0.00205522 -0.0074785 0.0112686)
(0.00241738 -0.00678422 0.0111807)
(0.00257499 -0.00786194 0.0122627)
(0.00258344 -0.00765232 0.0128636)
(0.00255533 -0.00727644 0.0118301)
(0.00241756 -0.00727685 0.0124343)
(-0.000672947 -0.00615754 0.0100231)
(0.00192008 -0.00656649 0.010021)
(0.00206908 -0.00675673 0.0107845)
(0.00188575 -0.00708938 0.0107635)
(0.000917232 -0.00635106 0.0102959)
(0.00229573 -0.00600364 0.00992974)
(0.00182909 -0.00674023 0.0107822)
(0.0022113 -0.00668664 0.0115007)
(0.00211337 -0.00680045 0.0118194)
(0.00222352 -0.00649689 0.0112824)
(0.00212807 -0.00671565 0.0116505)
(-4.5176e-05 -0.00780774 0.010218)
(-0.000386115 -0.00710425 0.00917761)
(-0.000457131 -0.00688775 0.00949938)
(0.000547522 -0.0071641 0.00946196)
(-0.000249824 -0.00697456 0.00929745)
(-0.000306268 -0.00702225 0.00929385)
(0.000513117 -0.00710487 0.00930516)
(-6.54427e-07 -0.00691046 0.00918953)
(0.000175833 -0.00688191 0.00918009)
(0.000218115 -0.00695396 0.00927016)
(0.000215987 -0.00694924 0.0093682)
(0.000270103 -0.00707923 0.00953111)
(0.000399786 -0.0067559 0.00926258)
(-0.000462597 -0.00738862 0.0097097)
(-9.7497e-05 -0.00694196 0.0092475)
(-0.000192223 -0.00694485 0.00931618)
(-3.42409e-05 -0.00702176 0.0095077)
(0.000119288 -0.00699789 0.00947313)
(0.000114263 -0.00710372 0.00976245)
(0.000167628 -0.00709024 0.00987718)
(0.00021579 -0.00731552 0.0103402)
(0.000415948 -0.0069698 0.00941916)
(0.000435962 -0.00697798 0.00959423)
(0.000502844 -0.00711531 0.00982768)
(0.00052276 -0.00721532 0.0101912)
(0.000654659 -0.00680016 0.0097085)
(0.000539784 -0.00682783 0.0099152)
(0.000776384 -0.00701817 0.0103457)
(0.000622735 -0.00699604 0.0104222)
(0.000306763 -0.00711975 0.0100932)
(0.000191926 -0.00723634 0.0104796)
(0.000433228 -0.0073188 0.0107003)
(0.000292987 -0.00746173 0.0109824)
(0.000385402 -0.00712515 0.0105986)
(0.000221902 -0.0070562 0.0105731)
(0.000548972 -0.00735988 0.0110372)
(0.000394553 -0.00717472 0.0109172)
(-0.000272594 -0.00685394 0.00940001)
(-0.00020244 -0.00702634 0.0097089)
(-0.000291902 -0.00688766 0.00969471)
(-0.000175906 -0.00708263 0.010152)
(-4.68179e-06 -0.0070458 0.010051)
(-0.000121011 -0.00727973 0.0106087)
(0.000119371 -0.00713035 0.0105948)
(-1.111e-05 -0.00740518 0.0110755)
(-0.000421389 -0.00672994 0.00995841)
(-0.000418644 -0.00692249 0.0103851)
(-0.000438934 -0.00678076 0.0103258)
(-0.000319114 -0.00702865 0.0108543)
(-0.000224743 -0.007017 0.0108842)
(-0.000399703 -0.00735043 0.0113266)
(-8.65988e-05 -0.00708825 0.0113483)
(-0.000239005 -0.00737583 0.0117328)
(5.90525e-05 -0.00736071 0.0109555)
(-0.000113577 -0.00749262 0.011219)
(0.000238243 -0.0075173 0.0113926)
(4.79968e-05 -0.00755812 0.0115591)
(0.000144489 -0.00742593 0.0112894)
(-2.70261e-05 -0.00717316 0.0111049)
(0.000286595 -0.0074568 0.01159)
(0.000125522 -0.00710783 0.0113037)
(-0.00018533 -0.00749137 0.0116582)
(-0.000376219 -0.00746331 0.0117593)
(5.43002e-06 -0.00746286 0.0120177)
(-0.000230706 -0.00730354 0.0119798)
(-0.000151889 -0.00738081 0.0118061)
(-0.000314731 -0.00703096 0.0115308)
(-6.06135e-05 -0.00716093 0.0119093)
(-0.000228443 -0.00674722 0.0115302)
(0.000880727 -0.00670548 0.00988892)
(0.000847938 -0.00639749 0.00983438)
(0.000966178 -0.00682499 0.0103412)
(0.000871064 -0.00640237 0.010141)
(0.00112984 -0.00624282 0.00973095)
(0.00122835 -0.00630817 0.0096866)
(0.00112205 -0.00618639 0.00985087)
(0.00116317 -0.00614958 0.00969731)
(0.000525098 -0.00690486 0.0104422)
(0.000440951 -0.00648828 0.0101588)
(0.000679157 -0.00690896 0.0107017)
(0.000546177 -0.00643062 0.0103209)
(0.000758314 -0.00631239 0.00991097)
(0.000892754 -0.0061963 0.00973316)
(0.000766593 -0.006195 0.0100305)
(0.000789014 -0.00607611 0.00984156)
(0.000730757 -0.00619866 0.0101016)
(0.00203113 -0.00594562 0.0100239)
(0.00152408 -0.00652887 0.0106118)
(0.000659427 -0.00606055 0.00999557)
(0.00195342 -0.00582544 0.00998715)
(0.00149549 -0.00642867 0.0105796)
(0.0018571 -0.00617786 0.0110392)
(0.00179953 -0.00642088 0.0114433)
(0.00181156 -0.00611502 0.0109446)
(0.00175589 -0.00635212 0.0113095)
(0.000437232 -0.00596446 0.00995036)
(0.00165522 -0.00571281 0.00994594)
(0.00118379 -0.00624995 0.0105078)
(0.000323582 -0.00579841 0.0099418)
(0.00150884 -0.00550759 0.00987906)
(0.0011313 -0.00611008 0.0104788)
(0.00147078 -0.0059558 0.0109107)
(0.00144137 -0.00619647 0.0112373)
(0.00140649 -0.00594882 0.0109459)
(0.00138126 -0.00611883 0.0114096)
(0.00022093 -0.00692224 0.0108928)
(0.000136831 -0.00649875 0.0104883)
(0.000318392 -0.0068395 0.0110311)
(0.000188878 -0.0063715 0.0105415)
(0.000412582 -0.00628849 0.0102029)
(0.000499923 -0.00609303 0.00991558)
(0.000363144 -0.00616561 0.0103006)
(0.0003902 -0.00588375 0.0100697)
(-0.000109972 -0.00681564 0.0112772)
(-0.000122342 -0.00631013 0.0107924)
(-0.000143843 -0.00653551 0.011282)
(-0.000184915 -0.00618516 0.0109016)
(4.8883e-05 -0.00603667 0.0104586)
(0.00016954 -0.00568467 0.0101603)
(-1.45728e-05 -0.00590527 0.0106965)
(-0.000375028 -0.00531448 0.0103953)
(0.000306924 -0.0054416 0.0105523)
(7.69793e-05 -0.00567589 0.00990869)
(0.00116382 -0.00532507 0.00979927)
(0.00079535 -0.00593713 0.0104573)
(-3.44827e-05 -0.00549477 0.0100067)
(0.00101735 -0.00520278 0.00985748)
(0.000668153 -0.00593125 0.0106939)
(0.00106639 -0.00575059 0.0109917)
(0.00107033 -0.00588275 0.0113854)
(0.000962975 -0.00585468 0.0112055)
(0.000434117 -0.00565199 0.0116449)
(0.0012568 -0.00566745 0.0120004)
(0.00072469 -0.00549693 0.0101482)
(0.000988645 -0.00466608 0.00992367)
(0.000167293 -0.0051594 0.0101656)
(0.000419786 -0.00596499 0.0110372)
(0.000330786 -0.00553419 0.011324)
(0.000324219 -0.00561576 0.0115776)
(0.000590675 -0.00589028 0.0116797)
(-7.16698e-05 -0.00569878 0.0118343)
(0.000637986 -0.00562033 0.011532)
(0.00041666 -0.00586001 0.0119056)
(0.000993232 -0.00563055 0.0120414)
(0.00106788 -0.00486925 0.011424)
(0.000109768 -0.00546674 0.0126083)
(-0.000755319 -0.00511582 0.00795675)
(-0.000804038 -0.0048118 0.00792537)
(-0.000190483 -0.00526254 0.00823377)
(3.76041e-05 -0.00522121 0.00817598)
(-0.000715965 -0.00568304 0.00862575)
(-0.000414584 -0.00590358 0.00833809)
(-0.000515109 -0.00546408 0.00846592)
(-0.000314396 -0.00569199 0.00887829)
(-4.15999e-05 -0.00490734 0.00799474)
(-0.000743637 -0.0052401 0.00841775)
(-0.000500195 -0.0056486 0.00841772)
(-0.000898123 -0.00558509 0.0087033)
(-0.000914495 -0.00530358 0.00843103)
(-0.000234829 -0.00545978 0.00913936)
(-0.000397057 -0.00549651 0.00851604)
(-0.000120463 -0.0056435 0.0090282)
(-0.00058238 -0.0055779 0.00878224)
(-0.000778779 -0.00565752 0.00869011)
(-0.00072515 -0.00545495 0.00836101)
(-2.49586e-05 -0.00575374 0.00915624)
(-0.000477095 -0.00588438 0.00888083)
(4.66566e-05 -0.00552674 0.00891029)
(-0.000593978 -0.00598085 0.00904168)
(-0.000377814 -0.00572445 0.00903989)
(-0.000394588 -0.00583883 0.00925916)
(-0.000412833 -0.00607315 0.00954513)
(-0.000293099 -0.00609592 0.00930894)
(-0.000554854 -0.0061625 0.00981732)
(-0.000629335 -0.00561479 0.00932991)
(-6.07648e-05 -0.005941 0.00954005)
(-0.000535657 -0.00562568 0.00881981)
(-0.000442542 -0.00535696 0.00893026)
(-0.000452718 -0.00572058 0.00916699)
(-0.00034273 -0.00552361 0.00952413)
(-0.000282483 -0.00571057 0.00914535)
(-3.29482e-05 -0.00548628 0.00979208)
(0.000239013 -0.0058548 0.0100022)
(-0.000433344 -0.00563563 0.00955457)
(0.000231501 -0.00562422 0.0101786)
(-0.000384433 -0.00567445 0.00992776)
(-0.000596303 -0.00531218 0.00902824)
(-0.000208884 -0.00530374 0.00903032)
(-0.000874364 -0.00555651 0.00922497)
(-0.000954237 -0.00494606 0.00897471)
(-0.000811785 -0.00471294 0.00873901)
(-0.00035745 -0.00489505 0.00897969)
(-0.000635138 -0.00522574 0.00918084)
(-0.000208351 -0.00470024 0.00913777)
(-0.000595937 -0.00480616 0.00886431)
(-0.00063234 -0.00495545 0.00939303)
(-0.00017738 -0.00438517 0.00910371)
(-0.000683113 -0.00482176 0.0091434)
(-0.000532837 -0.0046225 0.00945968)
(-0.000462683 -0.00534599 0.00919606)
(-0.000420915 -0.00533049 0.00955081)
(-0.000400692 -0.00498479 0.00946018)
(-0.000190515 -0.0051675 0.00968041)
(-0.000689726 -0.00489147 0.00969473)
(-0.000660052 -0.00475783 0.00935968)
(-0.000147796 -0.00498644 0.0103496)
(-0.000296532 -0.00548635 0.0103387)
(0.000338985 -0.00472579 0.0101987)
(-0.000127227 -0.00500964 0.00987923)
(-0.000192902 -0.00527812 0.0106495)
(-0.000503515 -0.00484586 0.00988682)
(-0.000425778 -0.00472736 0.0103107)
(-0.000428109 -0.00478154 0.0100016)
(-0.00076275 -0.00438333 0.0103321)
(-0.000638909 -0.00421364 0.0100078)
(-0.000260305 -0.0043073 0.0103564)
(9.26181e-05 -0.00439287 0.0103522)
(-0.000444146 -0.00480472 0.0103698)
(-0.000302457 -0.00499539 0.0107265)
(-0.000182914 -0.00439371 0.0106428)
(-0.000191925 -0.00473302 0.0110665)
(0.000165017 -0.00627796 0.00990582)
(-0.000588749 -0.00647109 0.00988084)
(-0.000477973 -0.00708571 0.0104608)
(-0.00030202 -0.00646219 0.0101918)
(-0.000405705 -0.00701074 0.010737)
(-0.000587114 -0.00748846 0.0108614)
(-0.00100036 -0.00802166 0.0112247)
(-0.00050477 -0.00746953 0.0112047)
(-0.000935524 -0.00803029 0.0115742)
(-0.000311761 -0.00637297 0.0104039)
(-0.000493899 -0.00694204 0.0110034)
(-0.000203026 -0.00618999 0.0106021)
(-0.000398879 -0.00672417 0.0112689)
(-0.000632839 -0.00744452 0.01148)
(-0.00109072 -0.00797868 0.0118883)
(-0.000513187 -0.00730295 0.0118145)
(-0.000989269 -0.00781383 0.0122229)
(-0.00119255 -0.00815073 0.0113996)
(-0.00136474 -0.00814411 0.0112577)
(-0.00117881 -0.00814884 0.011756)
(-0.00139821 -0.00819555 0.0116505)
(-0.000470543 -0.00681293 0.0103643)
(-0.00159476 -0.00742215 0.0105919)
(-0.00103514 -0.00684765 0.0102386)
(-0.000542914 -0.00701258 0.0109155)
(-0.00166505 -0.00762723 0.011087)
(-0.000998559 -0.00697735 0.0108091)
(-0.00136362 -0.00811151 0.0120791)
(-0.00157917 -0.0081411 0.011999)
(-0.00125607 -0.00797672 0.0124403)
(-0.0015744 -0.00810092 0.0123961)
(-0.000726024 -0.0068747 0.0112669)
(-0.00184854 -0.00752992 0.0114453)
(-0.00133028 -0.00677721 0.0111052)
(-0.000715939 -0.00694852 0.0116504)
(-0.00185504 -0.00762088 0.011843)
(-0.00120759 -0.00677922 0.0113795)
(-0.000267609 -0.00585536 0.0109246)
(-0.000478311 -0.00647739 0.0115225)
(-0.000123991 -0.00566604 0.0111953)
(-0.000327225 -0.00622062 0.0117715)
(-0.000616776 -0.00709754 0.0121228)
(-0.00109451 -0.0076047 0.0125493)
(-0.000454203 -0.0068096 0.0123972)
(-0.000891406 -0.00726192 0.0128377)
(-0.000237938 -0.00535004 0.0113572)
(-0.000429304 -0.00592015 0.0119498)
(-0.000120349 -0.00511624 0.0115983)
(-0.000276575 -0.00564033 0.0121815)
(-0.000566167 -0.00647817 0.0125562)
(-0.000961186 -0.00691287 0.0129998)
(-0.000384388 -0.00613594 0.01277)
(-0.000753079 -0.00652947 0.0132029)
(-0.00139772 -0.00779928 0.0128348)
(-0.00172899 -0.00787138 0.012877)
(-0.0011559 -0.00742956 0.0131248)
(-0.00153749 -0.00761455 0.013004)
(-0.00089428 -0.00668028 0.0122407)
(-0.00197183 -0.00729547 0.0122084)
(-0.00143398 -0.00650905 0.0121328)
(0.000761453 -0.0061812 0.0120616)
(-0.0012643 -0.00746422 0.0122574)
(-0.00136077 -0.00650086 0.0135087)
(-0.00161472 -0.00625908 0.0123356)
(-0.00121526 -0.0072475 0.01327)
(-0.00172239 -0.0065477 0.0131056)
(-0.00101728 -0.00674958 0.0134882)
(-0.00133659 -0.00677088 0.0136081)
(-0.00154916 -0.00719157 0.0137049)
(0.000880291 -0.0057975 0.0122556)
(-0.0013362 -0.00658563 0.012471)
(-0.00158127 -0.00600699 0.0128333)
(-0.00156333 -0.00618462 0.0129497)
(-0.00146458 -0.0059022 0.0138601)
(-0.000598484 -0.00437783 0.00915948)
(-0.000580837 -0.00416586 0.00952995)
(-0.000525003 -0.00444126 0.00958979)
(-0.00041337 -0.00416855 0.00985712)
(-0.000598602 -0.0041872 0.00975287)
(-0.000568338 -0.00381636 0.0100987)
(-0.000525627 -0.00413133 0.0100722)
(-0.000396695 -0.00395 0.0106041)
(-0.000425974 -0.0042885 0.00997304)
(-0.000177808 -0.00410007 0.0102042)
(8.38436e-05 -0.0040355 0.0104387)
(-0.000519806 -0.00405831 0.0101442)
(0.000116529 -0.00389604 0.0104099)
(-0.000346258 -0.00382814 0.0102378)
(-0.00022972 -0.00423683 0.010725)
(-0.000266878 -0.00456808 0.0111754)
(-0.00010022 -0.0040696 0.0106993)
(-0.000150926 -0.00428346 0.0112394)
(-0.000362079 -0.00379365 0.0102438)
(-7.90647e-05 -0.00346016 0.0107844)
(7.05276e-06 -0.003575 0.0104618)
(-0.00039096 -0.00349739 0.0102718)
(1.74842e-05 -0.00323737 0.010568)
(-0.000299852 -0.00344281 0.0104168)
(-0.000203598 -0.00380238 0.0108139)
(-0.000236308 -0.00400323 0.0113007)
(-9.65465e-05 -0.00350889 0.0109269)
(-0.000109335 -0.00375467 0.0113976)
(-0.000503148 -0.00355234 0.0103629)
(-0.00046629 -0.00353812 0.0107658)
(-0.0004338 -0.00339476 0.0105561)
(-0.000278692 -0.00344459 0.0110249)
(-0.000483996 -0.00294846 0.0104045)
(-0.000501685 -0.00301409 0.0109059)
(-0.000150201 -0.00268479 0.0106076)
(-0.000296525 -0.00273511 0.010924)
(-0.00105685 -0.00277068 0.0102887)
(-0.000694073 -0.00288634 0.0103028)
(-0.000412463 -0.00285556 0.0114733)
(-0.00025791 -0.00311162 0.0106656)
(7.39564e-05 -0.00270657 0.0107498)
(-0.000229615 -0.00309779 0.0106966)
(-0.000183202 -0.00295998 0.0108464)
(-0.000179361 -0.00315552 0.0110342)
(-0.000211717 -0.00347032 0.01145)
(-4.01106e-05 -0.00304489 0.011117)
(-7.4657e-05 -0.00325583 0.0115)
(-5.61095e-05 -0.0025539 0.0106302)
(-0.00038433 -0.00278266 0.0106371)
(-0.000245916 -0.00279204 0.010671)
(4.64908e-05 -0.00235128 0.0106016)
(-0.000203276 -0.00262881 0.0106261)
(-0.000146404 -0.00256743 0.0106786)
(-0.000130195 -0.00278979 0.0110406)
(-0.000175524 -0.0029978 0.0114327)
(-6.90507e-06 -0.0025851 0.0110339)
(-5.3725e-05 -0.00276731 0.0114226)
(-0.000206825 -0.00487704 0.0116965)
(-0.00036177 -0.00532643 0.0122878)
(-6.48263e-05 -0.00460529 0.0117828)
(-0.000225671 -0.00501227 0.0123508)
(-0.000455286 -0.00577207 0.0128619)
(-0.000804564 -0.00612818 0.0132753)
(-0.000287121 -0.00539169 0.0128947)
(-0.000575557 -0.00569729 0.0132956)
(-0.000160392 -0.0043035 0.0118388)
(-0.000286012 -0.00466282 0.0123633)
(-1.24747e-05 -0.00402718 0.0119249)
(-0.000139116 -0.00433606 0.0124269)
(-0.000332295 -0.0050062 0.012872)
(-0.000601451 -0.00529483 0.0132598)
(-0.000153751 -0.00464572 0.012923)
(-0.000372806 -0.0049221 0.0132863)
(-0.00104095 -0.00637154 0.0136057)
(-0.00138334 -0.00629773 0.0136573)
(-0.000755232 -0.00593978 0.0136488)
(-0.00107514 -0.00596209 0.0137918)
(-0.00143352 -0.00612806 0.0136865)
(-0.00158091 -0.00593923 0.0134789)
(-0.00114127 -0.00581592 0.0137797)
(-0.00128227 -0.00569191 0.0138651)
(-0.000749463 -0.00552189 0.0136128)
(-0.00103504 -0.00557912 0.0137963)
(-0.000477007 -0.00512079 0.0136303)
(-0.000728339 -0.00520371 0.0138192)
(-0.00112075 -0.00552491 0.0138994)
(-0.00126668 -0.0054757 0.0139917)
(-0.000785672 -0.00521269 0.0139404)
(-0.000925186 -0.00523715 0.0140843)
(-0.00012123 -0.00372524 0.0119466)
(-0.000223175 -0.00399306 0.0124086)
(2.54101e-05 -0.00347338 0.0119702)
(-7.73464e-05 -0.00372757 0.0124129)
(-0.00023433 -0.00427986 0.0128871)
(-0.000422562 -0.00454315 0.0132284)
(-6.9221e-05 -0.00397311 0.0128609)
(-0.000213268 -0.00420694 0.0131872)
(-9.58593e-05 -0.00318836 0.0119237)
(-0.000177314 -0.00340986 0.0123488)
(3.31421e-05 -0.00293237 0.0118917)
(-3.8833e-05 -0.00313532 0.0123006)
(-0.000158799 -0.00363618 0.0127644)
(-0.000292303 -0.00387058 0.013062)
(-1.18227e-05 -0.00333418 0.0126903)
(-0.000125578 -0.00356651 0.0129622)
(-0.000485387 -0.00473332 0.0135425)
(-0.000699067 -0.00485162 0.0137403)
(-0.000243363 -0.00438889 0.0134828)
(-0.000428722 -0.00452299 0.0136655)
(-0.000752725 -0.00491868 0.0139195)
(-0.000892333 -0.00497964 0.0140656)
(-0.000453232 -0.0046167 0.013846)
(-0.000567417 -0.00474071 0.0139724)
(-0.000312444 -0.00404756 0.0133474)
(-0.000451745 -0.00420501 0.0135152)
(-0.000114775 -0.00374423 0.0132211)
(-0.000228201 -0.00391735 0.0133627)
(-0.000462441 -0.0043215 0.0136399)
(-0.000595037 -0.00447286 0.0137271)
(-0.000231564 -0.00405458 0.0134711)
(-0.000372698 -0.00424363 0.013531)
(-0.000694886 -0.0065917 0.0105249)
(-0.000733269 -0.00681254 0.0111275)
(-0.000559936 -0.00658895 0.0110651)
(-0.000627016 -0.00676955 0.0114975)
(-0.000518241 -0.00698155 0.0116131)
(-0.00071021 -0.00726099 0.0120115)
(-0.000379517 -0.00696183 0.0119281)
(-0.000565526 -0.00709346 0.01221)
(-0.00101351 -0.00636714 0.0113748)
(-0.00110468 -0.00657047 0.0117512)
(-0.000886484 -0.00624807 0.0115744)
(-0.000960221 -0.00640422 0.0119229)
(-0.000849103 -0.00682265 0.0122522)
(-0.00104987 -0.00688364 0.0125236)
(-0.000722212 -0.00658953 0.012436)
(-0.000967776 -0.00645915 0.0125599)
(-0.000516424 -0.0073563 0.0122868)
(-0.000676177 -0.00713793 0.0122094)
(-0.000402329 -0.00709336 0.0123572)
(-0.000611645 -0.00673965 0.0121403)
(-0.000521782 -0.00700756 0.0121097)
(-0.000588311 -0.00660253 0.0117208)
(-0.000558429 -0.00658494 0.0119817)
(-0.000602899 -0.00632849 0.0117095)
(-0.000901379 -0.0068754 0.0126307)
(-0.000971377 -0.00649773 0.0122552)
(-0.000942972 -0.00647207 0.0126133)
(-0.000984342 -0.00611613 0.0124559)
(-0.000852523 -0.00633339 0.0120841)
(-0.000823987 -0.00600876 0.0120044)
(-0.000917957 -0.00584429 0.0122891)
(-0.00099983 -0.00572489 0.0122337)
(-0.00121138 -0.00587248 0.0119758)
(-0.00132507 -0.00601982 0.012319)
(-0.00119191 -0.00594192 0.012499)
(-0.00125859 -0.00567146 0.0126755)
(-0.00115591 -0.00632414 0.0128684)
(-0.0013037 -0.00612639 0.0130116)
(-0.00119463 -0.00586518 0.0131427)
(-0.00140928 -0.00579071 0.0132385)
(-2.69367e-05 -0.00568515 0.0125756)
(-0.00186026 -0.00548139 0.012771)
(9.91702e-06 -0.00550771 0.0127275)
(-0.0019079 -0.00561051 0.0129999)
(-0.00129794 -0.00583795 0.013802)
(-0.00131696 -0.00581397 0.0141236)
(6.2598e-05 -0.00570937 0.0132916)
(-0.0018083 -0.00586786 0.0135857)
(-6.05454e-05 -0.00570029 0.0135193)
(-0.00130105 -0.00584268 0.0136703)
(-0.00185782 -0.00549365 0.0138618)
(-0.00119204 -0.0060028 0.0146152)
(-0.0013251 -0.00625046 0.0150328)
(-0.00126549 -0.0060076 0.0129346)
(-0.00134133 -0.00577281 0.0128185)
(0.000208411 -0.0058753 0.0129587)
(-0.0018873 -0.00605076 0.0143113)
(5.60542e-05 -0.00559085 0.0128641)
(-0.000976243 -0.00566334 0.0130973)
(-0.00160096 -0.00545948 0.0138587)
(0.00024853 -0.00579896 0.0125876)
(-0.00166971 -0.00587283 0.0132865)
(5.10705e-05 -0.00552423 0.0125579)
(-0.000891794 -0.00577012 0.0128297)
(-0.0015564 -0.00535659 0.0128969)
(-0.000867415 -0.00582092 0.0140152)
(-0.00110285 -0.00603979 0.0141936)
(-0.00130577 -0.00592 0.0145145)
(-0.00144912 -0.0061444 0.0144963)
(-0.00134463 -0.00620122 0.0142574)
(-0.00122224 -0.00584858 0.0143112)
(-0.00143302 -0.00614467 0.0137873)
(-0.00130559 -0.00579202 0.0138934)
(-0.00112013 -0.00586179 0.0144799)
(-0.00112376 -0.00588584 0.0143047)
(-0.000453304 -0.00637914 0.0114275)
(-0.000424891 -0.00594335 0.0112097)
(-0.000510618 -0.00603464 0.0115739)
(-0.000580586 -0.00569328 0.011303)
(-0.000344078 -0.00573174 0.0109149)
(0.000382949 -0.00547856 0.0106748)
(0.000126865 -0.00491015 0.0104234)
(-0.000677337 -0.00529157 0.0112007)
(0.000500214 -0.00561438 0.0110558)
(0.000105292 -0.00502 0.0113971)
(-0.00086918 -0.00544527 0.012044)
(-0.000328962 -0.00569772 0.0124254)
(-0.00082537 -0.0058208 0.0118148)
(0.000201138 -0.00564561 0.0117255)
(-0.000405927 -0.00548191 0.0119511)
(-0.00130782 -0.00550195 0.0122297)
(0.000270848 -0.00583358 0.0120416)
(-0.000371046 -0.00535976 0.0123361)
(-0.00131794 -0.00567417 0.0131789)
(-0.0007448 -0.0059666 0.0133511)
(-0.000657073 -0.00573188 0.0127083)
(-0.000806678 -0.0058783 0.0125235)
(-0.00075281 -0.00594701 0.0129204)
(-0.000724754 -0.00556659 0.0131325)
(-0.000154842 -0.00586518 0.0114698)
(-0.000112351 -0.00556301 0.0121577)
(-0.000243997 -0.00577847 0.0123782)
(-0.000193526 -0.00564731 0.012513)
(-2.72372e-05 -0.00570183 0.012706)
(-3.46782e-05 -0.00579582 0.0122043)
(-0.000384355 -0.00566216 0.0125103)
(0.00029083 -0.00579948 0.0125868)
(0.000667521 -0.00562619 0.0126071)
(0.000478204 -0.00489426 0.0120042)
(-0.000368365 -0.00547911 0.0133666)
(-0.000561064 -0.00564427 0.0129171)
(-0.000895191 -0.00547918 0.0131178)
(-0.000277844 -0.00592253 0.0132175)
(-0.000587233 -0.00565855 0.0132363)
(0.000295141 -0.00547712 0.0131765)
(2.89643e-05 -0.00507487 0.0126943)
(-0.000825684 -0.00549235 0.0140638)
(-0.000422992 -0.00572564 0.0134649)
(-0.000227551 -0.0056852 0.0129652)
(-0.000305682 -0.00583406 0.0128779)
(-0.000346415 -0.00543665 0.0129087)
(-0.00102078 -0.00586532 0.0136184)
(-0.00119267 -0.00605001 0.0132789)
(-0.00106945 -0.00610187 0.0135949)
(-0.00103835 -0.00576786 0.0138184)
(-0.000961666 -0.00572994 0.0134812)
(-0.000960025 -0.00561751 0.0136171)
(-0.000893111 -0.00567043 0.0139085)
(-0.000982796 -0.00541425 0.0138183)
(-0.00114426 -0.00584661 0.014157)
(-0.00118605 -0.00566779 0.0141034)
(-0.000986088 -0.00589109 0.01421)
(-0.00104727 -0.00570989 0.0141289)
(-0.000830998 -0.00567724 0.0145589)
(-0.00110842 -0.00555925 0.0140606)
(-2.72951e-05 -0.00543818 0.0140716)
(-0.000481551 -0.00540466 0.0139779)
(-0.00149271 -0.00544913 0.0140714)
(0.000204275 -0.00555419 0.013915)
(-0.000278995 -0.00514727 0.01403)
(-0.00127807 -0.00549194 0.0148707)
(-0.000828733 -0.00576372 0.0140949)
(-0.000726464 -0.00584112 0.0134401)
(-0.00117728 -0.00559936 0.0138138)
(-0.000620376 -0.00586353 0.0137799)
(0.00011402 -0.00557728 0.0136329)
(-0.000291739 -0.00500934 0.0131485)
(-0.0012467 -0.00562359 0.0145773)
(-0.000526226 -0.00577286 0.0136688)
(-0.000901501 -0.00538465 0.0133798)
(-0.000324612 -0.00571626 0.0135697)